 Entering Gaussian System, Link 0=g16
 Input=sn2.cnm.gjf
 Output=sn2.cnm.log
 Initial command:
 /home/yzhangnn/scratch/g16/l1.exe "/tmp/yzhangnn/1474473/Gau-114645.inp" -scrdir="/tmp/yzhangnn/1474473/"
 Default is to use a total of  40 processors:
                               40 via shared-memory
                                1 via Linda
 Entering Link 1 = /home/yzhangnn/scratch/g16/l1.exe PID=    114646.
  
 Copyright (c) 1988-2019, Gaussian, Inc.  All Rights Reserved.
  
 This is part of the Gaussian(R) 16 program.  It is based on
 the Gaussian(R) 09 system (copyright 2009, Gaussian, Inc.),
 the Gaussian(R) 03 system (copyright 2003, Gaussian, Inc.),
 the Gaussian(R) 98 system (copyright 1998, Gaussian, Inc.),
 the Gaussian(R) 94 system (copyright 1995, Gaussian, Inc.),
 the Gaussian 92(TM) system (copyright 1992, Gaussian, Inc.),
 the Gaussian 90(TM) system (copyright 1990, Gaussian, Inc.),
 the Gaussian 88(TM) system (copyright 1988, Gaussian, Inc.),
 the Gaussian 86(TM) system (copyright 1986, Carnegie Mellon
 University), and the Gaussian 82(TM) system (copyright 1983,
 Carnegie Mellon University). Gaussian is a federally registered
 trademark of Gaussian, Inc.
  
 This software contains proprietary and confidential information,
 including trade secrets, belonging to Gaussian, Inc.
  
 This software is provided under written license and may be
 used, copied, transmitted, or stored only in accord with that
 written license.
  
 The following legend is applicable only to US Government
 contracts under FAR:
  
                    RESTRICTED RIGHTS LEGEND
  
 Use, reproduction and disclosure by the US Government is
 subject to restrictions as set forth in subparagraphs (a)
 and (c) of the Commercial Computer Software - Restricted
 Rights clause in FAR 52.227-19.
  
 Gaussian, Inc.
 340 Quinnipiac St., Bldg. 40, Wallingford CT 06492
  
  
 ---------------------------------------------------------------
 Warning -- This program may not be used in any manner that
 competes with the business of Gaussian, Inc. or will provide
 assistance to any competitor of Gaussian, Inc.  The licensee
 of this program is prohibited from giving any competitor of
 Gaussian, Inc. access to this program.  By using this program,
 the user acknowledges that Gaussian, Inc. is engaged in the
 business of creating and licensing software in the field of
 computational chemistry and represents and warrants to the
 licensee that it is not a competitor of Gaussian, Inc. and that
 it will not use this program in any manner prohibited above.
 ---------------------------------------------------------------
  

 Cite this work as:
 Gaussian 16, Revision C.01,
 M. J. Frisch, G. W. Trucks, H. B. Schlegel, G. E. Scuseria, 
 M. A. Robb, J. R. Cheeseman, G. Scalmani, V. Barone, 
 G. A. Petersson, H. Nakatsuji, X. Li, M. Caricato, A. V. Marenich, 
 J. Bloino, B. G. Janesko, R. Gomperts, B. Mennucci, H. P. Hratchian, 
 J. V. Ortiz, A. F. Izmaylov, J. L. Sonnenberg, D. Williams-Young, 
 F. Ding, F. Lipparini, F. Egidi, J. Goings, B. Peng, A. Petrone, 
 T. Henderson, D. Ranasinghe, V. G. Zakrzewski, J. Gao, N. Rega, 
 G. Zheng, W. Liang, M. Hada, M. Ehara, K. Toyota, R. Fukuda, 
 J. Hasegawa, M. Ishida, T. Nakajima, Y. Honda, O. Kitao, H. Nakai, 
 T. Vreven, K. Throssell, J. A. Montgomery, Jr., J. E. Peralta, 
 F. Ogliaro, M. J. Bearpark, J. J. Heyd, E. N. Brothers, K. N. Kudin, 
 V. N. Staroverov, T. A. Keith, R. Kobayashi, J. Normand, 
 K. Raghavachari, A. P. Rendell, J. C. Burant, S. S. Iyengar, 
 J. Tomasi, M. Cossi, J. M. Millam, M. Klene, C. Adamo, R. Cammi, 
 J. W. Ochterski, R. L. Martin, K. Morokuma, O. Farkas, 
 J. B. Foresman, and D. J. Fox, Gaussian, Inc., Wallingford CT, 2019.
 
 ******************************************
 Gaussian 16:  ES64L-G16RevC.01  3-Jul-2019
                25-Mar-2025 
 ******************************************
 %nproc=1
 Will use up to    1 processors via shared memory.
 %chk=sn2.cnm.chk
 Default route: nosym IOp(7/127=-99) MaxDisk=500GB
 ----------------------------------------------------------------------
 # opt(ts,noeigen,calcfc,nomicro) freq nosym external="bash ${CHINIUM_P
 ATH}/tools/gau_cnm.sh template sn2.mwfn"
 ----------------------------------------------------------------------
 1/5=1,10=4,11=1,18=20,26=1,38=1/1,3;
 2/9=110,12=2,15=1,17=6,18=5,40=1/2;
 3/11=9,25=1,30=1,41=9900000,43=2,71=2,140=1/1;
 4/20=17,22=2,24=3,113=1,114=1/2;
 6/7=2,8=2,9=2,10=2/1;
 7/25=1,30=1,44=-1,127=-99/16;
 1/5=1,10=4,11=1,18=20,26=1/3(2);
 2/9=110,15=1/2;
 99//99;
 2/9=110,15=1/2;
 3/11=9,25=1,30=1,41=9900000,43=2,71=1/1;
 4/16=2,20=17,22=1,24=3,113=1,114=1/2;
 7/30=1,44=-1,127=-99/16;
 1/5=1,11=1,18=20,26=1/3(-4);
 2/9=110,15=1/2;
 6/7=2,8=2,9=2,10=2/1;
 99/9=10/99;
 ---
 123
 ---
 Symbolic Z-matrix:
 Charge = -1 Multiplicity = 1
 C                     0.        0.        0.45714 
 H                     0.        1.07      0.45714 
 H                    -0.92665  -0.535     0.45714 
 H                     0.92665  -0.535     0.45714 
 F                     0.        0.        2.45714 
 Cl                    0.        0.       -1.54286 
 
 Add virtual bond connecting atoms F5         and C1         Dist= 3.78D+00.

 GradGradGradGradGradGradGradGradGradGradGradGradGradGradGradGradGradGrad
 Berny optimization.
 Initialization pass.
                           ----------------------------
                           !    Initial Parameters    !
                           ! (Angstroms and Degrees)  !
 --------------------------                            --------------------------
 ! Name  Definition              Value          Derivative Info.                !
 --------------------------------------------------------------------------------
 ! R1    R(1,2)                  1.07           calculate D2E/DX2 analytically  !
 ! R2    R(1,3)                  1.07           calculate D2E/DX2 analytically  !
 ! R3    R(1,4)                  1.07           calculate D2E/DX2 analytically  !
 ! R4    R(1,5)                  2.0            calculate D2E/DX2 analytically  !
 ! R5    R(1,6)                  2.0            calculate D2E/DX2 analytically  !
 ! A1    A(2,1,3)              120.0            calculate D2E/DX2 analytically  !
 ! A2    A(2,1,4)              120.0            calculate D2E/DX2 analytically  !
 ! A3    A(2,1,5)               90.0            calculate D2E/DX2 analytically  !
 ! A4    A(2,1,6)               90.0            calculate D2E/DX2 analytically  !
 ! A5    A(3,1,4)              120.0            calculate D2E/DX2 analytically  !
 ! A6    A(3,1,5)               90.0            calculate D2E/DX2 analytically  !
 ! A7    A(3,1,6)               90.0            calculate D2E/DX2 analytically  !
 ! A8    A(4,1,5)               90.0            calculate D2E/DX2 analytically  !
 ! A9    A(4,1,6)               90.0            calculate D2E/DX2 analytically  !
 ! A10   L(5,1,6,2,-1)         180.0            calculate D2E/DX2 analytically  !
 ! A11   L(5,1,6,2,-2)         180.0            calculate D2E/DX2 analytically  !
 ! D1    D(2,1,4,3)            180.0            calculate D2E/DX2 analytically  !
 ! D2    D(2,1,5,3)            120.0            calculate D2E/DX2 analytically  !
 ! D3    D(2,1,6,3)           -120.0            calculate D2E/DX2 analytically  !
 ! D4    D(2,1,5,4)           -120.0            calculate D2E/DX2 analytically  !
 ! D5    D(2,1,6,4)            120.0            calculate D2E/DX2 analytically  !
 ! D6    D(3,1,5,4)            120.0            calculate D2E/DX2 analytically  !
 ! D7    D(3,1,6,4)           -120.0            calculate D2E/DX2 analytically  !
 --------------------------------------------------------------------------------
 Trust Radius=3.00D-01 FncErr=1.00D-07 GrdErr=1.00D-07 EigMax=2.50D+02 EigMin=1.00D-04
 Number of steps in this run=     33 maximum allowed number of steps=    100.
 Search for a saddle point of order  1.
 GradGradGradGradGradGradGradGradGradGradGradGradGradGradGradGradGradGrad

                          Input orientation:                          
 ---------------------------------------------------------------------
 Center     Atomic      Atomic             Coordinates (Angstroms)
 Number     Number       Type             X           Y           Z
 ---------------------------------------------------------------------
      1          6           0        0.000000    0.000000    0.457143
      2          1           0        0.000000    1.070000    0.457143
      3          1           0       -0.926647   -0.535000    0.457143
      4          1           0        0.926647   -0.535000    0.457143
      5          9           0        0.000000    0.000000    2.457143
      6         17           0        0.000000    0.000000   -1.542857
 ---------------------------------------------------------------------
                    Distance matrix (angstroms):
                    1          2          3          4          5
     1  C    0.000000
     2  H    1.070000   0.000000
     3  H    1.070000   1.853294   0.000000
     4  H    1.070000   1.853294   1.853294   0.000000
     5  F    2.000000   2.268237   2.268237   2.268237   0.000000
     6  Cl   2.000000   2.268237   2.268237   2.268237   4.000000
                    6
     6  Cl   0.000000
 Symmetry turned off by external request.
 Stoichiometry    CH3ClF(1-)
 Framework group  C3V[C3(FCCl),3SGV(H)]
 Deg. of freedom     4
 Full point group                 C3V     NOp   6
 Rotational constants (GHZ):         145.9967699           2.4918593           2.4918593
 Standard basis: STO-3G (5D, 7F)
    22 basis functions,    66 primitive gaussians,    22 cartesian basis functions
    18 alpha electrons       18 beta electrons
       nuclear repulsion energy        89.4728102159 Hartrees.
 NAtoms=    6 NActive=    6 NUniq=    6 SFac= 1.00D+00 NAtFMM=   60 NAOKFM=F Big=F
 Integral buffers will be    131072 words long.
 Raffenetti 1 integral format.
 Two-electron integral symmetry is turned off.
 External calculation of energy, first and second derivatives.
 Running external command "bash ${CHINIUM_PATH}/tools/gau_cnm.sh template sn2.mwfn R"
         input file       "/tmp/yzhangnn/1474473/Gau-114646.EIn"
         output file      "/tmp/yzhangnn/1474473/Gau-114646.EOu"
         message file     "/tmp/yzhangnn/1474473/Gau-114646.EMs"
         fchk file        "/tmp/yzhangnn/1474473/Gau-114646.EFC"
         mat. el file     "/tmp/yzhangnn/1474473/Gau-114646.EUF"
 Recovered energy= -598.514802895     dipole=      0.000000000000      0.000000000000      0.000000000000
 Energy=    -598.514803     NIter=   0.
 Dipole moment=       0.000000       0.000000       0.000000
 -------------------------------------------------------------------
 Center     Atomic                   Forces (Hartrees/Bohr)
 Number     Number              X              Y              Z
 -------------------------------------------------------------------
      1        6          -0.000000540   -0.000000141    0.011105685
      2        1          -0.000000007   -0.001921870    0.018273089
      3        1           0.001664462    0.000961020    0.018272376
      4        1          -0.001664066    0.000960766    0.018273287
      5        9           0.000000384   -0.000000163   -0.006215591
      6       17          -0.000000233    0.000000389   -0.059708847
 -------------------------------------------------------------------
 Cartesian Forces:  Max     0.059708847 RMS     0.016227368
 FormGI is forming the generalized inverse of G from B-inverse, IUseBI=4.

 GradGradGradGradGradGradGradGradGradGradGradGradGradGradGradGradGradGrad
 Berny optimization.
 Internal  Forces:  Max     0.059708847 RMS     0.013669127
 Search for a saddle point.
 Step number   1 out of a maximum of   33
 All quantities printed in internal units (Hartrees-Bohrs-Radians)
 Swapping is turned off.
 Second derivative matrix not updated -- analytic derivatives used.
 ITU=  0
     Eigenvalues ---   -0.02437   0.02208   0.03294   0.05626   0.06036
     Eigenvalues ---    0.06263   0.13865   0.14125   0.16387   0.41406
     Eigenvalues ---    0.42770   0.43055
 Eigenvectors required to have negative eigenvalues:
                          R4        D1        R5        A6        A9
   1                   -0.65154   0.51585   0.41647   0.14944  -0.14943
                          A3        A7        A4        A8        A1
   1                    0.14941  -0.14884  -0.14846   0.14789  -0.02514
 RFO step:  Lambda0=5.219820516D-03 Lambda=-2.38609335D-02.
 Linear search not attempted -- option 19 set.
 Maximum step size (   0.300) exceeded in Quadratic search.
    -- Step size scaled by   0.785
 Iteration  1 RMS(Cart)=  0.04761866 RMS(Int)=  0.02355465
 Iteration  2 RMS(Cart)=  0.01378504 RMS(Int)=  0.00590483
 Iteration  3 RMS(Cart)=  0.00027563 RMS(Int)=  0.00589546
 Iteration  4 RMS(Cart)=  0.00000140 RMS(Int)=  0.00589546
 Iteration  5 RMS(Cart)=  0.00000001 RMS(Int)=  0.00589546
 Variable       Old X    -DE/DX   Delta X   Delta X   Delta X     New X
                                 (Linear)    (Quad)   (Total)
    R1        2.02201  -0.00192   0.00000  -0.00245  -0.00245   2.01955
    R2        2.02201  -0.00192   0.00000  -0.00223  -0.00223   2.01977
    R3        2.02201  -0.00192   0.00000  -0.00112  -0.00112   2.02089
    R4        3.77945  -0.00622   0.00000   0.16138   0.16138   3.94083
    R5        3.77945   0.05971   0.00000   0.08366   0.08366   3.86311
    A1        2.09440  -0.00000   0.00000   0.02068   0.00418   2.09858
    A2        2.09440  -0.00000   0.00000  -0.00862  -0.02434   2.07006
    A3        1.57080  -0.00616   0.00000  -0.09638  -0.09688   1.47392
    A4        1.57080   0.00616   0.00000   0.09552   0.09603   1.66683
    A5        2.09440   0.00000   0.00000  -0.01206  -0.02777   2.06663
    A6        1.57080  -0.00616   0.00000  -0.09651  -0.09700   1.47379
    A7        1.57080   0.00616   0.00000   0.09578   0.09630   1.66709
    A8        1.57080  -0.00616   0.00000  -0.09480  -0.09528   1.47552
    A9        1.57080   0.00616   0.00000   0.09640   0.09686   1.66766
   A10        3.14159  -0.00000   0.00000  -0.00086  -0.00085   3.14075
   A11        3.14159  -0.00000   0.00000   0.00135   0.00134   3.14294
    D1        3.14159  -0.02133   0.00000  -0.33220  -0.32655   2.81504
    D2        2.09440  -0.00000   0.00000   0.02068   0.02072   2.11512
    D3       -2.09440   0.00000   0.00000  -0.02068  -0.02045  -2.11485
    D4       -2.09440   0.00000   0.00000   0.00862   0.00863  -2.08577
    D5        2.09440  -0.00000   0.00000  -0.00862  -0.00850   2.08589
    D6        2.09440   0.00000   0.00000  -0.01206  -0.01209   2.08230
    D7       -2.09440  -0.00000   0.00000   0.01206   0.01195  -2.08245
         Item               Value     Threshold  Converged?
 Maximum Force            0.059709     0.000450     NO 
 RMS     Force            0.013669     0.000300     NO 
 Maximum Displacement     0.193820     0.001800     NO 
 RMS     Displacement     0.057002     0.001200     NO 
 Predicted change in Energy=-9.664799D-03
 GradGradGradGradGradGradGradGradGradGradGradGradGradGradGradGradGradGrad

                          Input orientation:                          
 ---------------------------------------------------------------------
 Center     Atomic      Atomic             Coordinates (Angstroms)
 Number     Number       Type             X           Y           Z
 ---------------------------------------------------------------------
      1          6           0       -0.002228    0.001624    0.398848
      2          1           0        0.008107    1.065307    0.501787
      3          1           0       -0.917697   -0.540274    0.501962
      4          1           0        0.919020   -0.531678    0.501439
      5          9           0       -0.003659    0.002489    2.484244
      6         17           0       -0.003543    0.002532   -1.645422
 ---------------------------------------------------------------------
                    Distance matrix (angstroms):
                    1          2          3          4          5
     1  C    0.000000
     2  H    1.068702   0.000000
     3  H    1.068817   1.853377   0.000000
     4  H    1.069408   1.838511   1.836737   0.000000
     5  F    2.085396   2.249412   2.249333   2.251263   0.000000
     6  Cl   2.044271   2.395857   2.396159   2.396980   4.129666
                    6
     6  Cl   0.000000
 Symmetry turned off by external request.
 Stoichiometry    CH3ClF(1-)
 Framework group  C1[X(CH3ClF)]
 Deg. of freedom    12
 Full point group                 C1      NOp   1
 Rotational constants (GHZ):         147.6410313           2.3391893           2.3387666
 Standard basis: STO-3G (5D, 7F)
    22 basis functions,    66 primitive gaussians,    22 cartesian basis functions
    18 alpha electrons       18 beta electrons
       nuclear repulsion energy        87.0961600225 Hartrees.
 NAtoms=    6 NActive=    6 NUniq=    6 SFac= 1.00D+00 NAtFMM=   60 NAOKFM=F Big=F
 Integral buffers will be    131072 words long.
 Raffenetti 1 integral format.
 Two-electron integral symmetry is turned off.
 External calculation of energy and first derivatives.
 Running external command "bash ${CHINIUM_PATH}/tools/gau_cnm.sh template sn2.mwfn R"
         input file       "/tmp/yzhangnn/1474473/Gau-114646.EIn"
         output file      "/tmp/yzhangnn/1474473/Gau-114646.EOu"
         message file     "/tmp/yzhangnn/1474473/Gau-114646.EMs"
         fchk file        "/tmp/yzhangnn/1474473/Gau-114646.EFC"
         mat. el file     "/tmp/yzhangnn/1474473/Gau-114646.EUF"
 Recovered energy= -598.524717514     dipole=      0.000000000000      0.000000000000      0.000000000000
 Energy=    -598.524718     NIter=   0.
 Dipole moment=       0.000000       0.000000       0.000000
 -------------------------------------------------------------------
 Center     Atomic                   Forces (Hartrees/Bohr)
 Number     Number              X              Y              Z
 -------------------------------------------------------------------
      1        6           0.002167006   -0.001587678    0.006477526
      2        1          -0.001457058   -0.000748448    0.007148333
      3        1          -0.000138868    0.001807791    0.007088818
      4        1          -0.000610823    0.000557790    0.006782937
      5        9           0.000043101   -0.000025887   -0.003948306
      6       17          -0.000003358   -0.000003568   -0.023549309
 -------------------------------------------------------------------
 Cartesian Forces:  Max     0.023549309 RMS     0.006554683

 GradGradGradGradGradGradGradGradGradGradGradGradGradGradGradGradGradGrad
 Berny optimization.
 FormGI is forming the generalized inverse of G from B-inverse, IUseBI=4.
 Internal  Forces:  Max     0.023549302 RMS     0.005421845
 Search for a saddle point.
 Step number   2 out of a maximum of   33
 All quantities printed in internal units (Hartrees-Bohrs-Radians)
 Swapping is turned off.
 Update second derivatives using D2CorX and points    1    2
 ITU=  0  0
     Eigenvalues ---   -0.01868   0.02214   0.03316   0.05564   0.05974
     Eigenvalues ---    0.06171   0.13722   0.13983   0.15166   0.41406
     Eigenvalues ---    0.42768   0.43053
 Eigenvectors required to have negative eigenvalues:
                          R4        D1        R5        A4        A8
   1                    0.66728  -0.50061  -0.39885   0.15191  -0.15158
                          A7        A3        A6        A9        A2
   1                    0.15139  -0.15123  -0.15105   0.15055  -0.05535
 RFO step:  Lambda0=1.542714065D-03 Lambda=-4.75927363D-03.
 Linear search not attempted -- option 19 set.
 Iteration  1 RMS(Cart)=  0.03477904 RMS(Int)=  0.00954697
 Iteration  2 RMS(Cart)=  0.00571931 RMS(Int)=  0.00358756
 Iteration  3 RMS(Cart)=  0.00005200 RMS(Int)=  0.00358682
 Iteration  4 RMS(Cart)=  0.00000028 RMS(Int)=  0.00358682
 Variable       Old X    -DE/DX   Delta X   Delta X   Delta X     New X
                                 (Linear)    (Quad)   (Total)
    R1        2.01955  -0.00007   0.00000   0.00204   0.00204   2.02160
    R2        2.01977  -0.00011   0.00000   0.00120   0.00120   2.02098
    R3        2.02089  -0.00015   0.00000   0.00104   0.00104   2.02193
    R4        3.94083  -0.00395   0.00000   0.13085   0.13085   4.07168
    R5        3.86311   0.02355   0.00000   0.02144   0.02144   3.88455
    A1        2.09858  -0.00118   0.00000  -0.02812  -0.03796   2.06062
    A2        2.07006  -0.00069   0.00000  -0.02792  -0.03691   2.03315
    A3        1.47392  -0.00247   0.00000  -0.07507  -0.07549   1.39843
    A4        1.66683   0.00252   0.00000   0.07641   0.07681   1.74364
    A5        2.06663  -0.00056   0.00000  -0.01828  -0.02744   2.03919
    A6        1.47379  -0.00244   0.00000  -0.07509  -0.07548   1.39831
    A7        1.66709   0.00247   0.00000   0.07537   0.07575   1.74285
    A8        1.47552  -0.00244   0.00000  -0.07582  -0.07603   1.39949
    A9        1.66766   0.00237   0.00000   0.07417   0.07441   1.74207
   A10        3.14075   0.00004   0.00000   0.00134   0.00132   3.14207
   A11        3.14294  -0.00006   0.00000  -0.00114  -0.00112   3.14182
    D1        2.81504  -0.00820   0.00000  -0.25040  -0.24463   2.57042
    D2        2.11512  -0.00035   0.00000  -0.00276  -0.00323   2.11189
    D3       -2.11485   0.00034   0.00000   0.00269   0.00295  -2.11190
    D4       -2.08577  -0.00011   0.00000   0.00349   0.00333  -2.08244
    D5        2.08589   0.00011   0.00000  -0.00344  -0.00332   2.08257
    D6        2.08230   0.00024   0.00000   0.00625   0.00656   2.08886
    D7       -2.08245  -0.00023   0.00000  -0.00613  -0.00627  -2.08872
         Item               Value     Threshold  Converged?
 Maximum Force            0.023549     0.000450     NO 
 RMS     Force            0.005422     0.000300     NO 
 Maximum Displacement     0.115513     0.001800     NO 
 RMS     Displacement     0.038834     0.001200     NO 
 Predicted change in Energy=-1.684394D-03
 GradGradGradGradGradGradGradGradGradGradGradGradGradGradGradGradGradGrad

                          Input orientation:                          
 ---------------------------------------------------------------------
 Center     Atomic      Atomic             Coordinates (Angstroms)
 Number     Number       Type             X           Y           Z
 ---------------------------------------------------------------------
      1          6           0       -0.002604    0.001036    0.349066
      2          1           0        0.007719    1.054873    0.532796
      3          1           0       -0.910984   -0.532789    0.532396
      4          1           0        0.911552   -0.524198    0.531444
      5          9           0       -0.002836    0.000540    2.503704
      6         17           0       -0.002846    0.000537   -1.706549
 ---------------------------------------------------------------------
                    Distance matrix (angstroms):
                    1          2          3          4          5
     1  C    0.000000
     2  H    1.069783   0.000000
     3  H    1.069454   1.834308   0.000000
     4  H    1.069960   1.819445   1.822556   0.000000
     5  F    2.154638   2.235219   2.235000   2.236351   0.000000
     6  Cl   2.055615   2.475157   2.474273   2.473880   4.210253
                    6
     6  Cl   0.000000
 Symmetry turned off by external request.
 Stoichiometry    CH3ClF(1-)
 Framework group  C1[X(CH3ClF)]
 Deg. of freedom    12
 Full point group                 C1      NOp   1
 Rotational constants (GHZ):         150.4807570           2.2527780           2.2524439
 Standard basis: STO-3G (5D, 7F)
    22 basis functions,    66 primitive gaussians,    22 cartesian basis functions
    18 alpha electrons       18 beta electrons
       nuclear repulsion energy        85.8224010967 Hartrees.
 NAtoms=    6 NActive=    6 NUniq=    6 SFac= 1.00D+00 NAtFMM=   60 NAOKFM=F Big=F
 Integral buffers will be    131072 words long.
 Raffenetti 1 integral format.
 Two-electron integral symmetry is turned off.
 External calculation of energy and first derivatives.
 Running external command "bash ${CHINIUM_PATH}/tools/gau_cnm.sh template sn2.mwfn R"
         input file       "/tmp/yzhangnn/1474473/Gau-114646.EIn"
         output file      "/tmp/yzhangnn/1474473/Gau-114646.EOu"
         message file     "/tmp/yzhangnn/1474473/Gau-114646.EMs"
         fchk file        "/tmp/yzhangnn/1474473/Gau-114646.EFC"
         mat. el file     "/tmp/yzhangnn/1474473/Gau-114646.EUF"
 Recovered energy= -598.526333856     dipole=      0.000000000000      0.000000000000      0.000000000000
 Energy=    -598.526334     NIter=   0.
 Dipole moment=       0.000000       0.000000       0.000000
 -------------------------------------------------------------------
 Center     Atomic                   Forces (Hartrees/Bohr)
 Number     Number              X              Y              Z
 -------------------------------------------------------------------
      1        6           0.002133542   -0.000590180    0.004559558
      2        1          -0.001458244    0.000490650    0.000340193
      3        1          -0.001106811    0.000673991    0.000494613
      4        1           0.000430496   -0.000617874    0.000194981
      5        9           0.000030435   -0.000004004   -0.001640624
      6       17          -0.000029418    0.000047417   -0.003948722
 -------------------------------------------------------------------
 Cartesian Forces:  Max     0.004559558 RMS     0.001649747

 GradGradGradGradGradGradGradGradGradGradGradGradGradGradGradGradGradGrad
 Berny optimization.
 FormGI is forming the generalized inverse of G from B-inverse, IUseBI=4.
 Internal  Forces:  Max     0.003948714 RMS     0.000959980
 Search for a saddle point.
 Step number   3 out of a maximum of   33
 All quantities printed in internal units (Hartrees-Bohrs-Radians)
 Swapping is turned off.
 Update second derivatives using D2CorX and points    2    3
 ITU=  0  0  0
     Eigenvalues ---   -0.00937   0.02207   0.03328   0.05440   0.05843
     Eigenvalues ---    0.05932   0.13425   0.13689   0.14537   0.41405
     Eigenvalues ---    0.42783   0.43051
 Eigenvectors required to have negative eigenvalues:
                          R4        D1        R5        A7        A3
   1                    0.68124  -0.48224  -0.37166   0.15487  -0.15338
                          A6        A4        A8        A9        A1
   1                   -0.15327   0.15251  -0.15042   0.14967  -0.11335
 RFO step:  Lambda0=5.248569146D-04 Lambda=-1.62385544D-04.
 Linear search not attempted -- option 19 set.
 Iteration  1 RMS(Cart)=  0.02308777 RMS(Int)=  0.00103404
 Iteration  2 RMS(Cart)=  0.00059002 RMS(Int)=  0.00084421
 Iteration  3 RMS(Cart)=  0.00000004 RMS(Int)=  0.00084421
 Variable       Old X    -DE/DX   Delta X   Delta X   Delta X     New X
                                 (Linear)    (Quad)   (Total)
    R1        2.02160   0.00053   0.00000   0.00329   0.00329   2.02489
    R2        2.02098   0.00069   0.00000   0.00419   0.00419   2.02517
    R3        2.02193   0.00070   0.00000   0.00276   0.00276   2.02469
    R4        4.07168  -0.00164   0.00000   0.14692   0.14692   4.21859
    R5        3.88455   0.00395   0.00000  -0.06369  -0.06369   3.82086
    A1        2.06062  -0.00058   0.00000  -0.04624  -0.04818   2.01244
    A2        2.03315   0.00036   0.00000  -0.00594  -0.00829   2.02486
    A3        1.39843  -0.00006   0.00000  -0.03925  -0.03921   1.35922
    A4        1.74364   0.00001   0.00000   0.03882   0.03879   1.78243
    A5        2.03919   0.00013   0.00000  -0.01411  -0.01636   2.02283
    A6        1.39831  -0.00012   0.00000  -0.03930  -0.03929   1.35902
    A7        1.74285   0.00015   0.00000   0.04048   0.04046   1.78330
    A8        1.39949   0.00003   0.00000  -0.03813  -0.03793   1.36155
    A9        1.74207  -0.00001   0.00000   0.03736   0.03719   1.77926
   A10        3.14207  -0.00005   0.00000  -0.00043  -0.00042   3.14164
   A11        3.14182  -0.00000   0.00000  -0.00112  -0.00112   3.14070
    D1        2.57042  -0.00034   0.00000  -0.12879  -0.12747   2.44295
    D2        2.11189  -0.00056   0.00000  -0.02486  -0.02516   2.08673
    D3       -2.11190   0.00057   0.00000   0.02463   0.02488  -2.08702
    D4       -2.08244  -0.00039   0.00000  -0.01666  -0.01686  -2.09930
    D5        2.08257   0.00039   0.00000   0.01634   0.01646   2.09903
    D6        2.08886   0.00017   0.00000   0.00820   0.00830   2.09716
    D7       -2.08872  -0.00018   0.00000  -0.00829  -0.00842  -2.09714
         Item               Value     Threshold  Converged?
 Maximum Force            0.003949     0.000450     NO 
 RMS     Force            0.000960     0.000300     NO 
 Maximum Displacement     0.073968     0.001800     NO 
 RMS     Displacement     0.023193     0.001200     NO 
 Predicted change in Energy= 1.994237D-04
 GradGradGradGradGradGradGradGradGradGradGradGradGradGradGradGradGradGrad

                          Input orientation:                          
 ---------------------------------------------------------------------
 Center     Atomic      Atomic             Coordinates (Angstroms)
 Number     Number       Type             X           Y           Z
 ---------------------------------------------------------------------
      1          6           0        0.000701   -0.000350    0.309924
      2          1           0       -0.003606    1.047261    0.534999
      3          1           0       -0.908392   -0.521071    0.535500
      4          1           0        0.908049   -0.525031    0.532117
      5          9           0        0.001538   -0.000453    2.542307
      6         17           0        0.001711   -0.000356   -1.711990
 ---------------------------------------------------------------------
                    Distance matrix (angstroms):
                    1          2          3          4          5
     1  C    0.000000
     2  H    1.071525   0.000000
     3  H    1.071673   1.810608   0.000000
     4  H    1.071420   1.817478   1.816448   0.000000
     5  F    2.232383   2.264292   2.264132   2.266674   0.000000
     6  Cl   2.021914   2.479211   2.480049   2.476438   4.254297
                    6
     6  Cl   0.000000
 Symmetry turned off by external request.
 Stoichiometry    CH3ClF(1-)
 Framework group  C1[X(CH3ClF)]
 Deg. of freedom    12
 Full point group                 C1      NOp   1
 Rotational constants (GHZ):         152.2470050           2.2128112           2.2126595
 Standard basis: STO-3G (5D, 7F)
    22 basis functions,    66 primitive gaussians,    22 cartesian basis functions
    18 alpha electrons       18 beta electrons
       nuclear repulsion energy        85.4877160968 Hartrees.
 NAtoms=    6 NActive=    6 NUniq=    6 SFac= 1.00D+00 NAtFMM=   60 NAOKFM=F Big=F
 Integral buffers will be    131072 words long.
 Raffenetti 1 integral format.
 Two-electron integral symmetry is turned off.
 External calculation of energy and first derivatives.
 Running external command "bash ${CHINIUM_PATH}/tools/gau_cnm.sh template sn2.mwfn R"
         input file       "/tmp/yzhangnn/1474473/Gau-114646.EIn"
         output file      "/tmp/yzhangnn/1474473/Gau-114646.EOu"
         message file     "/tmp/yzhangnn/1474473/Gau-114646.EMs"
         fchk file        "/tmp/yzhangnn/1474473/Gau-114646.EFC"
         mat. el file     "/tmp/yzhangnn/1474473/Gau-114646.EUF"
 Recovered energy= -598.526078514     dipole=      0.000000000000      0.000000000000      0.000000000000
 Energy=    -598.526079     NIter=   0.
 Dipole moment=       0.000000       0.000000       0.000000
 -------------------------------------------------------------------
 Center     Atomic                   Forces (Hartrees/Bohr)
 Number     Number              X              Y              Z
 -------------------------------------------------------------------
      1        6          -0.000738636    0.000227271    0.000224690
      2        1           0.000668010    0.000418526   -0.000287302
      3        1          -0.000033247   -0.000666013   -0.000392823
      4        1           0.000260467   -0.000025618    0.000070934
      5        9          -0.000022134    0.000004917   -0.001543716
      6       17          -0.000134460    0.000040917    0.001928218
 -------------------------------------------------------------------
 Cartesian Forces:  Max     0.001928218 RMS     0.000672703

 GradGradGradGradGradGradGradGradGradGradGradGradGradGradGradGradGradGrad
 Berny optimization.
 FormGI is forming the generalized inverse of G from B-inverse, IUseBI=4.
 Internal  Forces:  Max     0.001928285 RMS     0.000552884
 Search for a saddle point.
 Step number   4 out of a maximum of   33
 All quantities printed in internal units (Hartrees-Bohrs-Radians)
 Swapping is turned off.
 Update second derivatives using D2CorX and points    2    3    4
 ITU=  0  0  0  0
     Eigenvalues ---   -0.00887   0.02207   0.03375   0.05358   0.05747
     Eigenvalues ---    0.05776   0.13242   0.13476   0.15115   0.41406
     Eigenvalues ---    0.42793   0.43049
 Eigenvectors required to have negative eigenvalues:
                          R4        D1        R5        A9        A8
   1                    0.63066  -0.48304  -0.42303   0.16573  -0.16167
                          A3        A6        A4        A7        A1
   1                   -0.15968  -0.15868   0.15738   0.15691  -0.11363
 RFO step:  Lambda0=1.939560964D-05 Lambda=-5.75982918D-05.
 Linear search not attempted -- option 19 set.
 Iteration  1 RMS(Cart)=  0.00563974 RMS(Int)=  0.00008540
 Iteration  2 RMS(Cart)=  0.00004555 RMS(Int)=  0.00006815
 Iteration  3 RMS(Cart)=  0.00000000 RMS(Int)=  0.00006815
 Variable       Old X    -DE/DX   Delta X   Delta X   Delta X     New X
                                 (Linear)    (Quad)   (Total)
    R1        2.02489   0.00035   0.00000   0.00115   0.00115   2.02604
    R2        2.02517   0.00027   0.00000   0.00098   0.00098   2.02615
    R3        2.02469   0.00025   0.00000   0.00140   0.00140   2.02609
    R4        4.21859  -0.00154   0.00000   0.01471   0.01471   4.23330
    R5        3.82086  -0.00193   0.00000  -0.03346  -0.03346   3.78741
    A1        2.01244   0.00034   0.00000   0.00070   0.00052   2.01296
    A2        2.02486  -0.00014   0.00000  -0.01009  -0.01022   2.01463
    A3        1.35922   0.00013   0.00000  -0.00901  -0.00905   1.35017
    A4        1.78243  -0.00018   0.00000   0.00843   0.00847   1.79090
    A5        2.02283  -0.00005   0.00000  -0.00985  -0.00998   2.01285
    A6        1.35902   0.00018   0.00000  -0.00871  -0.00874   1.35028
    A7        1.78330  -0.00029   0.00000   0.00768   0.00772   1.79102
    A8        1.36155  -0.00007   0.00000  -0.01050  -0.01053   1.35102
    A9        1.77926   0.00023   0.00000   0.01209   0.01212   1.79138
   A10        3.14164  -0.00005   0.00000  -0.00058  -0.00058   3.14107
   A11        3.14070   0.00016   0.00000   0.00154   0.00154   3.14224
    D1        2.44295   0.00035   0.00000  -0.02542  -0.02525   2.41770
    D2        2.08673   0.00026   0.00000   0.00730   0.00730   2.09403
    D3       -2.08702  -0.00020   0.00000  -0.00672  -0.00670  -2.09372
    D4       -2.09930   0.00017   0.00000   0.00372   0.00372  -2.09558
    D5        2.09903  -0.00013   0.00000  -0.00335  -0.00334   2.09569
    D6        2.09716  -0.00009   0.00000  -0.00358  -0.00358   2.09358
    D7       -2.09714   0.00007   0.00000   0.00337   0.00336  -2.09378
         Item               Value     Threshold  Converged?
 Maximum Force            0.001928     0.000450     NO 
 RMS     Force            0.000553     0.000300     NO 
 Maximum Displacement     0.017491     0.001800     NO 
 RMS     Displacement     0.005647     0.001200     NO 
 Predicted change in Energy=-1.905036D-05
 GradGradGradGradGradGradGradGradGradGradGradGradGradGradGradGradGradGrad

                          Input orientation:                          
 ---------------------------------------------------------------------
 Center     Atomic      Atomic             Coordinates (Angstroms)
 Number     Number       Type             X           Y           Z
 ---------------------------------------------------------------------
      1          6           0        0.000344   -0.000049    0.300668
      2          1           0       -0.000223    1.046133    0.535140
      3          1           0       -0.905665   -0.523268    0.535161
      4          1           0        0.906154   -0.523804    0.534596
      5          9           0        0.000082    0.000284    2.540834
      6         17           0       -0.000691    0.000705   -1.703541
 ---------------------------------------------------------------------
                    Distance matrix (angstroms):
                    1          2          3          4          5
     1  C    0.000000
     2  H    1.072135   0.000000
     3  H    1.072193   1.811862   0.000000
     4  H    1.072163   1.812794   1.811820   0.000000
     5  F    2.240166   2.261992   2.262125   2.262880   0.000000
     6  Cl   2.004209   2.470751   2.470893   2.471181   4.244375
                    6
     6  Cl   0.000000
 Symmetry turned off by external request.
 Stoichiometry    CH3ClF(1-)
 Framework group  C1[X(CH3ClF)]
 Deg. of freedom    12
 Full point group                 C1      NOp   1
 Rotational constants (GHZ):         152.6997908           2.2243691           2.2243463
 Standard basis: STO-3G (5D, 7F)
    22 basis functions,    66 primitive gaussians,    22 cartesian basis functions
    18 alpha electrons       18 beta electrons
       nuclear repulsion energy        85.7607957948 Hartrees.
 NAtoms=    6 NActive=    6 NUniq=    6 SFac= 1.00D+00 NAtFMM=   60 NAOKFM=F Big=F
 Integral buffers will be    131072 words long.
 Raffenetti 1 integral format.
 Two-electron integral symmetry is turned off.
 External calculation of energy and first derivatives.
 Running external command "bash ${CHINIUM_PATH}/tools/gau_cnm.sh template sn2.mwfn R"
         input file       "/tmp/yzhangnn/1474473/Gau-114646.EIn"
         output file      "/tmp/yzhangnn/1474473/Gau-114646.EOu"
         message file     "/tmp/yzhangnn/1474473/Gau-114646.EMs"
         fchk file        "/tmp/yzhangnn/1474473/Gau-114646.EFC"
         mat. el file     "/tmp/yzhangnn/1474473/Gau-114646.EUF"
 Recovered energy= -598.526107535     dipole=      0.000000000000      0.000000000000      0.000000000000
 Energy=    -598.526108     NIter=   0.
 Dipole moment=       0.000000       0.000000       0.000000
 -------------------------------------------------------------------
 Center     Atomic                   Forces (Hartrees/Bohr)
 Number     Number              X              Y              Z
 -------------------------------------------------------------------
      1        6          -0.000172815   -0.000063444   -0.000029653
      2        1           0.000089358    0.000048697   -0.000197098
      3        1          -0.000042225   -0.000014611   -0.000237631
      4        1           0.000096714    0.000057087   -0.000229726
      5        9           0.000007264   -0.000008914   -0.000424008
      6       17           0.000021704   -0.000018816    0.001118116
 -------------------------------------------------------------------
 Cartesian Forces:  Max     0.001118116 RMS     0.000301731

 GradGradGradGradGradGradGradGradGradGradGradGradGradGradGradGradGradGrad
 Berny optimization.
 FormGI is forming the generalized inverse of G from B-inverse, IUseBI=4.
 Internal  Forces:  Max     0.001118134 RMS     0.000260349
 Search for a saddle point.
 Step number   5 out of a maximum of   33
 All quantities printed in internal units (Hartrees-Bohrs-Radians)
 Swapping is turned off.
 Update second derivatives using D2CorX and points    2    3    4    5
 ITU=  0  0  0  0  0
     Eigenvalues ---   -0.00574   0.02235   0.03383   0.05331   0.05724
     Eigenvalues ---    0.05737   0.13197   0.13418   0.13972   0.41405
     Eigenvalues ---    0.42783   0.43049
 Eigenvectors required to have negative eigenvalues:
                          R4        R5        D1        A8        A4
   1                    0.58256  -0.53507  -0.45031  -0.15340   0.15319
                          A3        A9        A7        A6        A1
   1                   -0.14803   0.14764   0.14689  -0.14630  -0.12695
 RFO step:  Lambda0=3.780736893D-06 Lambda=-1.13997154D-05.
 Linear search not attempted -- option 19 set.
 Iteration  1 RMS(Cart)=  0.00304251 RMS(Int)=  0.00001375
 Iteration  2 RMS(Cart)=  0.00000734 RMS(Int)=  0.00001155
 Iteration  3 RMS(Cart)=  0.00000000 RMS(Int)=  0.00001155
 Variable       Old X    -DE/DX   Delta X   Delta X   Delta X     New X
                                 (Linear)    (Quad)   (Total)
    R1        2.02604   0.00000   0.00000  -0.00024  -0.00024   2.02580
    R2        2.02615  -0.00001   0.00000  -0.00035  -0.00035   2.02580
    R3        2.02609   0.00000   0.00000  -0.00027  -0.00027   2.02582
    R4        4.23330  -0.00042   0.00000  -0.01968  -0.01968   4.21362
    R5        3.78741  -0.00112   0.00000   0.00627   0.00627   3.79368
    A1        2.01296   0.00005   0.00000   0.00378   0.00375   2.01671
    A2        2.01463   0.00003   0.00000   0.00194   0.00191   2.01655
    A3        1.35017   0.00008   0.00000   0.00439   0.00439   1.35456
    A4        1.79090  -0.00005   0.00000  -0.00412  -0.00412   1.78678
    A5        2.01285   0.00010   0.00000   0.00355   0.00352   2.01637
    A6        1.35028   0.00009   0.00000   0.00439   0.00439   1.35467
    A7        1.79102  -0.00008   0.00000  -0.00435  -0.00435   1.78668
    A8        1.35102   0.00009   0.00000   0.00431   0.00431   1.35533
    A9        1.79138  -0.00013   0.00000  -0.00462  -0.00462   1.78677
   A10        3.14107   0.00003   0.00000   0.00027   0.00027   3.14133
   A11        3.14224  -0.00003   0.00000  -0.00021  -0.00021   3.14204
    D1        2.41770   0.00025   0.00000   0.01320   0.01322   2.43092
    D2        2.09403  -0.00001   0.00000   0.00073   0.00073   2.09476
    D3       -2.09372  -0.00001   0.00000  -0.00086  -0.00085  -2.09457
    D4       -2.09558   0.00003   0.00000   0.00125   0.00125  -2.09433
    D5        2.09569  -0.00003   0.00000  -0.00127  -0.00126   2.09442
    D6        2.09358   0.00004   0.00000   0.00052   0.00052   2.09409
    D7       -2.09378  -0.00003   0.00000  -0.00041  -0.00041  -2.09419
         Item               Value     Threshold  Converged?
 Maximum Force            0.001118     0.000450     NO 
 RMS     Force            0.000260     0.000300     YES
 Maximum Displacement     0.011011     0.001800     NO 
 RMS     Displacement     0.003042     0.001200     NO 
 Predicted change in Energy=-3.805365D-06
 GradGradGradGradGradGradGradGradGradGradGradGradGradGradGradGradGradGrad

                          Input orientation:                          
 ---------------------------------------------------------------------
 Center     Atomic      Atomic             Coordinates (Angstroms)
 Number     Number       Type             X           Y           Z
 ---------------------------------------------------------------------
      1          6           0        0.000089   -0.000029    0.305256
      2          1           0        0.000230    1.047021    0.535227
      3          1           0       -0.906588   -0.523757    0.535130
      4          1           0        0.906968   -0.523706    0.534507
      5          9           0        0.000008    0.000047    2.535007
      6         17           0       -0.000708    0.000422   -1.702270
 ---------------------------------------------------------------------
                    Distance matrix (angstroms):
                    1          2          3          4          5
     1  C    0.000000
     2  H    1.072008   0.000000
     3  H    1.072006   1.813743   0.000000
     4  H    1.072018   1.813659   1.813556   0.000000
     5  F    2.229750   2.257271   2.257386   2.258073   0.000000
     6  Cl   2.007527   2.470175   2.470090   2.470174   4.237277
                    6
     6  Cl   0.000000
 Symmetry turned off by external request.
 Stoichiometry    CH3ClF(1-)
 Framework group  C1[X(CH3ClF)]
 Deg. of freedom    12
 Full point group                 C1      NOp   1
 Rotational constants (GHZ):         152.4486091           2.2310286           2.2310247
 Standard basis: STO-3G (5D, 7F)
    22 basis functions,    66 primitive gaussians,    22 cartesian basis functions
    18 alpha electrons       18 beta electrons
       nuclear repulsion energy        85.8251924869 Hartrees.
 NAtoms=    6 NActive=    6 NUniq=    6 SFac= 1.00D+00 NAtFMM=   60 NAOKFM=F Big=F
 Integral buffers will be    131072 words long.
 Raffenetti 1 integral format.
 Two-electron integral symmetry is turned off.
 External calculation of energy and first derivatives.
 Running external command "bash ${CHINIUM_PATH}/tools/gau_cnm.sh template sn2.mwfn R"
         input file       "/tmp/yzhangnn/1474473/Gau-114646.EIn"
         output file      "/tmp/yzhangnn/1474473/Gau-114646.EOu"
         message file     "/tmp/yzhangnn/1474473/Gau-114646.EMs"
         fchk file        "/tmp/yzhangnn/1474473/Gau-114646.EFC"
         mat. el file     "/tmp/yzhangnn/1474473/Gau-114646.EUF"
 Recovered energy= -598.526114387     dipole=      0.000000000000      0.000000000000      0.000000000000
 Energy=    -598.526114     NIter=   0.
 Dipole moment=       0.000000       0.000000       0.000000
 -------------------------------------------------------------------
 Center     Atomic                   Forces (Hartrees/Bohr)
 Number     Number              X              Y              Z
 -------------------------------------------------------------------
      1        6          -0.000003937   -0.000014294    0.000298984
      2        1          -0.000010895   -0.000002583   -0.000149808
      3        1          -0.000011496    0.000017583   -0.000144782
      4        1           0.000010148    0.000005783   -0.000150674
      5        9           0.000006997   -0.000004659   -0.000239614
      6       17           0.000009183   -0.000001830    0.000385894
 -------------------------------------------------------------------
 Cartesian Forces:  Max     0.000385894 RMS     0.000141992

 GradGradGradGradGradGradGradGradGradGradGradGradGradGradGradGradGradGrad
 Berny optimization.
 FormGI is forming the generalized inverse of G from B-inverse, IUseBI=4.
 Internal  Forces:  Max     0.000385898 RMS     0.000106284
 Search for a saddle point.
 Step number   6 out of a maximum of   33
 All quantities printed in internal units (Hartrees-Bohrs-Radians)
 Swapping is turned off.
 Update second derivatives using D2CorX and points    2    3    4    5    6
 ITU=  0  0  0  0  0  0
     Eigenvalues ---   -0.00627   0.02244   0.03622   0.05340   0.05704
     Eigenvalues ---    0.05738   0.10846   0.13246   0.13446   0.41406
     Eigenvalues ---    0.42793   0.43049
 Eigenvectors required to have negative eigenvalues:
                          R4        R5        D1        A4        A9
   1                    0.61094  -0.47852  -0.46400   0.15894   0.15703
                          A8        A3        A6        A7        A2
   1                   -0.15682  -0.15625  -0.15362   0.15071  -0.12244
 RFO step:  Lambda0=1.586980088D-06 Lambda=-2.39618386D-06.
 Linear search not attempted -- option 19 set.
 Iteration  1 RMS(Cart)=  0.00187326 RMS(Int)=  0.00000350
 Iteration  2 RMS(Cart)=  0.00000189 RMS(Int)=  0.00000291
 Iteration  3 RMS(Cart)=  0.00000000 RMS(Int)=  0.00000291
 Variable       Old X    -DE/DX   Delta X   Delta X   Delta X     New X
                                 (Linear)    (Quad)   (Total)
    R1        2.02580  -0.00003   0.00000   0.00015   0.00015   2.02595
    R2        2.02580  -0.00003   0.00000   0.00007   0.00007   2.02586
    R3        2.02582  -0.00003   0.00000   0.00007   0.00007   2.02589
    R4        4.21362  -0.00024   0.00000   0.00746   0.00746   4.22108
    R5        3.79368  -0.00039   0.00000  -0.01169  -0.01169   3.78199
    A1        2.01671   0.00002   0.00000  -0.00200  -0.00200   2.01471
    A2        2.01655   0.00005   0.00000  -0.00193  -0.00194   2.01461
    A3        1.35456   0.00006   0.00000  -0.00209  -0.00209   1.35246
    A4        1.78678  -0.00005   0.00000   0.00233   0.00233   1.78910
    A5        2.01637   0.00005   0.00000  -0.00067  -0.00068   2.01569
    A6        1.35467   0.00006   0.00000  -0.00211  -0.00211   1.35256
    A7        1.78668  -0.00004   0.00000   0.00219   0.00219   1.78886
    A8        1.35533   0.00005   0.00000  -0.00240  -0.00240   1.35293
    A9        1.78677  -0.00007   0.00000   0.00209   0.00209   1.78886
   A10        3.14133   0.00001   0.00000   0.00024   0.00024   3.14157
   A11        3.14204  -0.00002   0.00000  -0.00023  -0.00023   3.14181
    D1        2.43092   0.00016   0.00000  -0.00674  -0.00673   2.42419
    D2        2.09476  -0.00002   0.00000  -0.00058  -0.00058   2.09418
    D3       -2.09457   0.00002   0.00000   0.00046   0.00046  -2.09411
    D4       -2.09433  -0.00001   0.00000   0.00040   0.00040  -2.09393
    D5        2.09442   0.00000   0.00000  -0.00043  -0.00043   2.09399
    D6        2.09409   0.00002   0.00000   0.00098   0.00098   2.09508
    D7       -2.09419  -0.00001   0.00000  -0.00089  -0.00089  -2.09509
         Item               Value     Threshold  Converged?
 Maximum Force            0.000386     0.000450     YES
 RMS     Force            0.000106     0.000300     YES
 Maximum Displacement     0.006307     0.001800     NO 
 RMS     Displacement     0.001874     0.001200     NO 
 Predicted change in Energy=-4.034567D-07
 GradGradGradGradGradGradGradGradGradGradGradGradGradGradGradGradGradGrad

                          Input orientation:                          
 ---------------------------------------------------------------------
 Center     Atomic      Atomic             Coordinates (Angstroms)
 Number     Number       Type             X           Y           Z
 ---------------------------------------------------------------------
      1          6           0        0.000021   -0.000093    0.302410
      2          1           0        0.000126    1.046521    0.534713
      3          1           0       -0.906509   -0.523149    0.534547
      4          1           0        0.906719   -0.523120    0.534013
      5          9           0        0.000203   -0.000281    2.536107
      6         17           0       -0.000561    0.000123   -1.698933
 ---------------------------------------------------------------------
                    Distance matrix (angstroms):
                    1          2          3          4          5
     1  C    0.000000
     2  H    1.072085   0.000000
     3  H    1.072041   1.812692   0.000000
     4  H    1.072053   1.812646   1.813228   0.000000
     5  F    2.233697   2.258622   2.258708   2.259096   0.000000
     6  Cl   2.001343   2.466602   2.466371   2.466371   4.235041
                    6
     6  Cl   0.000000
 Symmetry turned off by external request.
 Stoichiometry    CH3ClF(1-)
 Framework group  C1[X(CH3ClF)]
 Deg. of freedom    12
 Full point group                 C1      NOp   1
 Rotational constants (GHZ):         152.5828716           2.2339625           2.2339490
 Standard basis: STO-3G (5D, 7F)
    22 basis functions,    66 primitive gaussians,    22 cartesian basis functions
    18 alpha electrons       18 beta electrons
       nuclear repulsion energy        85.9086238993 Hartrees.
 NAtoms=    6 NActive=    6 NUniq=    6 SFac= 1.00D+00 NAtFMM=   60 NAOKFM=F Big=F
 Integral buffers will be    131072 words long.
 Raffenetti 1 integral format.
 Two-electron integral symmetry is turned off.
 External calculation of energy and first derivatives.
 Running external command "bash ${CHINIUM_PATH}/tools/gau_cnm.sh template sn2.mwfn R"
         input file       "/tmp/yzhangnn/1474473/Gau-114646.EIn"
         output file      "/tmp/yzhangnn/1474473/Gau-114646.EOu"
         message file     "/tmp/yzhangnn/1474473/Gau-114646.EMs"
         fchk file        "/tmp/yzhangnn/1474473/Gau-114646.EFC"
         mat. el file     "/tmp/yzhangnn/1474473/Gau-114646.EUF"
 Recovered energy= -598.526114577     dipole=      0.000000000000      0.000000000000      0.000000000000
 Energy=    -598.526115     NIter=   0.
 Dipole moment=       0.000000       0.000000       0.000000
 -------------------------------------------------------------------
 Center     Atomic                   Forces (Hartrees/Bohr)
 Number     Number              X              Y              Z
 -------------------------------------------------------------------
      1        6           0.000005437    0.000093038    0.000010848
      2        1          -0.000006338   -0.000015290   -0.000009393
      3        1           0.000033144   -0.000041079    0.000027988
      4        1          -0.000038345   -0.000045381    0.000027432
      5        9           0.000003402    0.000000530   -0.000009792
      6       17           0.000002700    0.000008182   -0.000047083
 -------------------------------------------------------------------
 Cartesian Forces:  Max     0.000093038 RMS     0.000032843

 GradGradGradGradGradGradGradGradGradGradGradGradGradGradGradGradGradGrad
 Berny optimization.
 FormGI is forming the generalized inverse of G from B-inverse, IUseBI=4.
 Internal  Forces:  Max     0.000047083 RMS     0.000018254
 Search for a saddle point.
 Step number   7 out of a maximum of   33
 All quantities printed in internal units (Hartrees-Bohrs-Radians)
 Swapping is turned off.
 Update second derivatives using D2CorX and points    2    3    4    5    6
                                                      7
 ITU=  0  0  0  0  0  0  0
     Eigenvalues ---   -0.00607   0.02516   0.03631   0.05314   0.05605
     Eigenvalues ---    0.05750   0.11301   0.13247   0.13501   0.41408
     Eigenvalues ---    0.42765   0.43049
 Eigenvectors required to have negative eigenvalues:
                          R4        D1        R5        A8        A9
   1                    0.60464  -0.47058  -0.47011  -0.16514   0.16404
                          A7        A6        A3        A4        A5
   1                    0.15901  -0.15760  -0.15676   0.15644  -0.12186
 RFO step:  Lambda0=1.692958237D-08 Lambda=-1.51390418D-07.
 Linear search not attempted -- option 19 set.
 Iteration  1 RMS(Cart)=  0.00033571 RMS(Int)=  0.00000017
 Iteration  2 RMS(Cart)=  0.00000013 RMS(Int)=  0.00000010
 Variable       Old X    -DE/DX   Delta X   Delta X   Delta X     New X
                                 (Linear)    (Quad)   (Total)
    R1        2.02595  -0.00002   0.00000  -0.00007  -0.00007   2.02587
    R2        2.02586  -0.00000   0.00000   0.00006   0.00006   2.02592
    R3        2.02589  -0.00000   0.00000   0.00004   0.00004   2.02592
    R4        4.22108  -0.00001   0.00000   0.00080   0.00080   4.22188
    R5        3.78199   0.00005   0.00000  -0.00050  -0.00050   3.78149
    A1        2.01471   0.00001   0.00000   0.00012   0.00012   2.01483
    A2        2.01461   0.00001   0.00000   0.00031   0.00031   2.01492
    A3        1.35246   0.00001   0.00000  -0.00028  -0.00028   1.35218
    A4        1.78910  -0.00002   0.00000   0.00017   0.00017   1.78928
    A5        2.01569  -0.00003   0.00000  -0.00123  -0.00123   2.01446
    A6        1.35256  -0.00001   0.00000  -0.00036  -0.00036   1.35220
    A7        1.78886   0.00002   0.00000   0.00050   0.00050   1.78936
    A8        1.35293  -0.00002   0.00000  -0.00050  -0.00050   1.35243
    A9        1.78886   0.00002   0.00000   0.00047   0.00047   1.78933
   A10        3.14157  -0.00001   0.00000  -0.00011  -0.00011   3.14146
   A11        3.14181  -0.00001   0.00000  -0.00010  -0.00010   3.14171
    D1        2.42419  -0.00002   0.00000  -0.00097  -0.00097   2.42323
    D2        2.09418   0.00001   0.00000   0.00038   0.00038   2.09456
    D3       -2.09411  -0.00001   0.00000  -0.00039  -0.00039  -2.09450
    D4       -2.09393  -0.00002   0.00000  -0.00064  -0.00064  -2.09457
    D5        2.09399   0.00001   0.00000   0.00058   0.00058   2.09458
    D6        2.09508  -0.00003   0.00000  -0.00102  -0.00102   2.09406
    D7       -2.09509   0.00002   0.00000   0.00098   0.00098  -2.09411
         Item               Value     Threshold  Converged?
 Maximum Force            0.000047     0.000450     YES
 RMS     Force            0.000018     0.000300     YES
 Maximum Displacement     0.000704     0.001800     YES
 RMS     Displacement     0.000336     0.001200     YES
 Predicted change in Energy=-6.723106D-08
 Optimization completed.
    -- Stationary point found.
                           ----------------------------
                           !   Optimized Parameters   !
                           ! (Angstroms and Degrees)  !
 --------------------------                            --------------------------
 ! Name  Definition              Value          Derivative Info.                !
 --------------------------------------------------------------------------------
 ! R1    R(1,2)                  1.0721         -DE/DX =    0.0                 !
 ! R2    R(1,3)                  1.072          -DE/DX =    0.0                 !
 ! R3    R(1,4)                  1.0721         -DE/DX =    0.0                 !
 ! R4    R(1,5)                  2.2337         -DE/DX =    0.0                 !
 ! R5    R(1,6)                  2.0013         -DE/DX =    0.0                 !
 ! A1    A(2,1,3)              115.4344         -DE/DX =    0.0                 !
 ! A2    A(2,1,4)              115.4288         -DE/DX =    0.0                 !
 ! A3    A(2,1,5)               77.4905         -DE/DX =    0.0                 !
 ! A4    A(2,1,6)              102.5082         -DE/DX =    0.0                 !
 ! A5    A(3,1,4)              115.4908         -DE/DX =    0.0                 !
 ! A6    A(3,1,5)               77.4959         -DE/DX =    0.0                 !
 ! A7    A(3,1,6)              102.4944         -DE/DX =    0.0                 !
 ! A8    A(4,1,5)               77.5172         -DE/DX =    0.0                 !
 ! A9    A(4,1,6)              102.4939         -DE/DX =    0.0                 !
 ! A10   L(5,1,6,2,-1)         179.9987         -DE/DX =    0.0                 !
 ! A11   L(5,1,6,2,-2)         180.0123         -DE/DX =    0.0                 !
 ! D1    D(2,1,4,3)            138.8961         -DE/DX =    0.0                 !
 ! D2    D(2,1,5,3)            119.9876         -DE/DX =    0.0                 !
 ! D3    D(2,1,6,3)           -119.9834         -DE/DX =    0.0                 !
 ! D4    D(2,1,5,4)           -119.9733         -DE/DX =    0.0                 !
 ! D5    D(2,1,6,4)            119.9771         -DE/DX =    0.0                 !
 ! D6    D(3,1,5,4)            120.039          -DE/DX =    0.0                 !
 ! D7    D(3,1,6,4)           -120.0395         -DE/DX =    0.0                 !
 --------------------------------------------------------------------------------
 GradGradGradGradGradGradGradGradGradGradGradGradGradGradGradGradGradGrad

                          Input orientation:                          
 ---------------------------------------------------------------------
 Center     Atomic      Atomic             Coordinates (Angstroms)
 Number     Number       Type             X           Y           Z
 ---------------------------------------------------------------------
      1          6           0        0.000021   -0.000093    0.302410
      2          1           0        0.000126    1.046521    0.534713
      3          1           0       -0.906509   -0.523149    0.534547
      4          1           0        0.906719   -0.523120    0.534013
      5          9           0        0.000203   -0.000281    2.536107
      6         17           0       -0.000561    0.000123   -1.698933
 ---------------------------------------------------------------------
                    Distance matrix (angstroms):
                    1          2          3          4          5
     1  C    0.000000
     2  H    1.072085   0.000000
     3  H    1.072041   1.812692   0.000000
     4  H    1.072053   1.812646   1.813228   0.000000
     5  F    2.233697   2.258622   2.258708   2.259096   0.000000
     6  Cl   2.001343   2.466602   2.466371   2.466371   4.235041
                    6
     6  Cl   0.000000
 Symmetry turned off by external request.
 Stoichiometry    CH3ClF(1-)
 Framework group  C1[X(CH3ClF)]
 Deg. of freedom    12
 Full point group                 C1      NOp   1
 Rotational constants (GHZ):         152.5828716           2.2339625           2.2339490

 Test job not archived.
 1\1\GINC-HHNODE-IB-50\FTS\External='bash ${CHINIUM_PATH}/tools/gau_cnm
 .sh template sn2.mwfn'\ZDO\C1H3Cl1F1(1-)\YZHANGNN\25-Mar-2025\0\\# opt
 (ts,noeigen,calcfc,nomicro) freq nosym external="bash ${CHINIUM_PATH}/
 tools/gau_cnm.sh template sn2.mwfn"\\123\\-1,1\C,0.000021407,-0.000092
 9425,0.3024100257\H,0.0001262069,1.0465209323,0.534713358\H,-0.9065090
 364,-0.5231491217,0.5345466678\H,0.9067187932,-0.5231201945,0.53401261
 4\F,0.0002034831,-0.0002813696,2.5361074654\Cl,-0.0005608539,0.0001226
 96,-1.6989329708\\Version=ES64L-G16RevC.01\HF=-598.5261146\RMSD=0.000e
 +00\RMSF=3.284e-05\Dipole=-0.0003908,-0.0000406,-0.142494\PG=C01 [X(C1
 H3Cl1F1)]\\@


 ONE THORN OF EXPERIENCE IS WORTH A WHOLE WILDERNESS OF
 WARNING....  LOWELL - AMONG MY BOOKS
 Job cpu time:       0 days  0 hours  0 minutes  6.8 seconds.
 Elapsed time:       0 days  0 hours  0 minutes 31.1 seconds.
 File lengths (MBytes):  RWF=      6 Int=      0 D2E=      0 Chk=      2 Scr=      1
 Normal termination of Gaussian 16 at Tue Mar 25 15:48:43 2025.
 Link1:  Proceeding to internal job step number  2.
 ----------------------------------------------------------------------
 #N Geom=AllCheck Guess=TCheck SCRF=Check Test GenChk External='bash ${
 CHINIUM_PATH}/tools/gau_cnm.sh template sn2.mwfn'/ZDO Freq
 ----------------------------------------------------------------------
 1/5=1,10=4,11=1,18=10,29=7,30=1,38=1,40=1/1,3;
 2/12=2,15=1,40=1/2;
 3/11=9,14=-4,25=1,30=1,41=9900000,43=2,70=40000002,71=2,116=-2,140=1/1;
 4/20=17,22=2,24=3,113=1,114=1/2;
 6/7=2,8=2,9=2,10=2/1;
 7/8=1,25=1,30=1,44=-1/16;
 1/5=1,10=4,11=1,18=10,30=1/3;
 99//99;
 Structure from the checkpoint file:  "sn2.cnm.chk"
 ---
 123
 ---
 Charge = -1 Multiplicity = 1
 Redundant internal coordinates found in file.  (old form).
 C,0,0.000021407,-0.0000929425,0.3024100257
 H,0,0.0001262069,1.0465209323,0.534713358
 H,0,-0.9065090364,-0.5231491217,0.5345466678
 H,0,0.9067187932,-0.5231201945,0.534012614
 F,0,0.0002034831,-0.0002813696,2.5361074654
 Cl,0,-0.0005608539,0.000122696,-1.6989329708
 Recover connectivity data from disk.

 GradGradGradGradGradGradGradGradGradGradGradGradGradGradGradGradGradGrad
 Berny optimization.
 Initialization pass.
 Trust Radius=3.00D-01 FncErr=1.00D-07 GrdErr=1.00D-07 EigMax=2.50D+02 EigMin=1.00D-04
 Number of steps in this run=      2 maximum allowed number of steps=      2.
 Search for a saddle point of order  1.
 GradGradGradGradGradGradGradGradGradGradGradGradGradGradGradGradGradGrad

                          Input orientation:                          
 ---------------------------------------------------------------------
 Center     Atomic      Atomic             Coordinates (Angstroms)
 Number     Number       Type             X           Y           Z
 ---------------------------------------------------------------------
      1          6           0        0.000021   -0.000093    0.302410
      2          1           0        0.000126    1.046521    0.534713
      3          1           0       -0.906509   -0.523149    0.534547
      4          1           0        0.906719   -0.523120    0.534013
      5          9           0        0.000203   -0.000281    2.536107
      6         17           0       -0.000561    0.000123   -1.698933
 ---------------------------------------------------------------------
                    Distance matrix (angstroms):
                    1          2          3          4          5
     1  C    0.000000
     2  H    1.072085   0.000000
     3  H    1.072041   1.812692   0.000000
     4  H    1.072053   1.812646   1.813228   0.000000
     5  F    2.233697   2.258622   2.258708   2.259096   0.000000
     6  Cl   2.001343   2.466602   2.466371   2.466371   4.235041
                    6
     6  Cl   0.000000
 Symmetry turned off by external request.
 Stoichiometry    CH3ClF(1-)
 Framework group  C1[X(CH3ClF)]
 Deg. of freedom    12
 Full point group                 C1      NOp   1
 Rotational constants (GHZ):         152.5828716           2.2339625           2.2339490
 Standard basis: STO-3G (5D, 7F)
    22 basis functions,    66 primitive gaussians,    22 cartesian basis functions
    18 alpha electrons       18 beta electrons
       nuclear repulsion energy        85.9086238993 Hartrees.
 NAtoms=    6 NActive=    6 NUniq=    6 SFac= 1.00D+00 NAtFMM=   60 NAOKFM=F Big=F
 Integral buffers will be    131072 words long.
 Raffenetti 1 integral format.
 Two-electron integral symmetry is turned off.
 External calculation of energy, first and second derivatives.
 Running external command "bash ${CHINIUM_PATH}/tools/gau_cnm.sh template sn2.mwfn R"
         input file       "/tmp/yzhangnn/1474473/Gau-114646.EIn"
         output file      "/tmp/yzhangnn/1474473/Gau-114646.EOu"
         message file     "/tmp/yzhangnn/1474473/Gau-114646.EMs"
         fchk file        "/tmp/yzhangnn/1474473/Gau-114646.EFC"
         mat. el file     "/tmp/yzhangnn/1474473/Gau-114646.EUF"
 Recovered energy= -598.526114577     dipole=      0.000000000000      0.000000000000      0.000000000000
 Energy=    -598.526115     NIter=   0.
 Dipole moment=       0.000000       0.000000       0.000000
 Full mass-weighted force constant matrix:
 Low frequencies --- -233.9029   -2.8358   -2.6676   -1.7594   -0.9059    3.4602
 Low frequencies ---   10.6971  186.9578  186.9896
 ******    1 imaginary frequencies (negative Signs) ****** 
 Diagonal vibrational polarizability:
        0.0000000       0.0000000       0.0000000
 Harmonic frequencies (cm**-1), IR intensities (KM/Mole), Raman scattering
 activities (A**4/AMU), depolarization ratios for plane and unpolarized
 incident light, reduced masses (AMU), force constants (mDyne/A),
 and normal coordinates:
                      1                      2                      3
                      A                      A                      A
 Frequencies --   -233.9029               186.9578               186.9894
 Red. masses --     12.0387                 3.7682                 3.7687
 Frc consts  --      0.3881                 0.0776                 0.0776
 IR Inten    --      0.0000                 0.0000                 0.0000
  Atom  AN      X      Y      Z        X      Y      Z        X      Y      Z
     1   6    -0.00   0.00   0.88     0.11   0.40  -0.00     0.40  -0.11   0.00
     2   1    -0.00   0.14   0.12     0.13   0.47  -0.25     0.45  -0.13   0.07
     3   1    -0.12  -0.07   0.12     0.14   0.46   0.18     0.46  -0.12   0.18
     4   1     0.12  -0.07   0.12     0.12   0.45   0.06     0.47  -0.13  -0.25
     5   9     0.00  -0.00  -0.34    -0.05  -0.16  -0.00    -0.16   0.05  -0.00
     6  17     0.00  -0.00  -0.13    -0.02  -0.09   0.00    -0.09   0.02   0.00
                      4                      5                      6
                      A                      A                      A
 Frequencies --    296.0272               989.5316               989.7573
 Red. masses --     22.7214                 1.0910                 1.0909
 Frc consts  --      1.1731                 0.6294                 0.6297
 IR Inten    --      0.0000                 0.0000                 0.0000
  Atom  AN      X      Y      Z        X      Y      Z        X      Y      Z
     1   6     0.00   0.00   0.27     0.01   0.08  -0.00     0.08  -0.01  -0.00
     2   1     0.00   0.06  -0.01    -0.01  -0.09   0.80    -0.13   0.01  -0.06
     3   1    -0.05  -0.03  -0.01     0.01  -0.12  -0.45    -0.10   0.03  -0.66
     4   1     0.05  -0.03  -0.01    -0.02  -0.12  -0.35    -0.10  -0.01   0.72
     5   9     0.00  -0.00   0.80     0.00   0.00   0.00     0.00  -0.00   0.00
     6  17    -0.00  -0.00  -0.53    -0.00  -0.02   0.00    -0.02   0.00   0.00
                      7                      8                      9
                      A                      A                      A
 Frequencies --   1226.8771              1510.3204              1510.7663
 Red. masses --      1.0520                 1.0816                 1.0815
 Frc consts  --      0.9330                 1.4536                 1.4544
 IR Inten    --      0.0000                 0.0000                 0.0000
  Atom  AN      X      Y      Z        X      Y      Z        X      Y      Z
     1   6    -0.00   0.00  -0.04     0.01  -0.08  -0.00    -0.08  -0.01   0.00
     2   1     0.00  -0.12   0.56    -0.05  -0.11   0.18     0.78  -0.01   0.01
     3   1     0.10   0.06   0.56    -0.39   0.59  -0.08     0.09  -0.35  -0.16
     4   1    -0.10   0.06   0.56     0.38   0.54  -0.10     0.14   0.42   0.15
     5   9    -0.00   0.00  -0.02     0.00  -0.00   0.00    -0.00  -0.00   0.00
     6  17    -0.00  -0.00  -0.02     0.00  -0.00   0.00    -0.00  -0.00  -0.00
                     10                     11                     12
                      A                      A                      A
 Frequencies --   3360.6556              3543.2493              3543.7536
 Red. masses --      1.0158                 1.1200                 1.1201
 Frc consts  --      6.7596                 8.2849                 8.2878
 IR Inten    --      0.0000                 0.0000                 0.0000
  Atom  AN      X      Y      Z        X      Y      Z        X      Y      Z
     1   6    -0.00  -0.00  -0.03     0.01  -0.10  -0.00    -0.10  -0.01   0.00
     2   1     0.00   0.57   0.11     0.00   0.79   0.17    -0.01   0.08   0.02
     3   1    -0.49  -0.28   0.11     0.29   0.15  -0.07     0.63   0.37  -0.15
     4   1     0.49  -0.28   0.11    -0.41   0.22  -0.10     0.56  -0.33   0.14
     5   9     0.00   0.00  -0.00    -0.00   0.00   0.00     0.00   0.00   0.00
     6  17     0.00   0.00   0.00    -0.00   0.00   0.00     0.00   0.00  -0.00

 -------------------
 - Thermochemistry -
 -------------------
 Temperature   298.150 Kelvin.  Pressure   1.00000 Atm.
 Atom     1 has atomic number  6 and mass  12.00000
 Atom     2 has atomic number  1 and mass   1.00783
 Atom     3 has atomic number  1 and mass   1.00783
 Atom     4 has atomic number  1 and mass   1.00783
 Atom     5 has atomic number  9 and mass  18.99840
 Atom     6 has atomic number 17 and mass  34.96885
 Molecular mass:    68.99073 amu.
 Principal axes and moments of inertia in atomic units:
                           1         2         3
     Eigenvalues --    11.82794 807.86548 807.87036
           X            0.00019   0.99936  -0.03580
           Y           -0.00009   0.03580   0.99936
           Z            1.00000  -0.00018   0.00010
 This molecule is an asymmetric top.
 Rotational symmetry number  1.
 Rotational temperatures (Kelvin)      7.32282     0.10721     0.10721
 Rotational constants (GHZ):         152.58287     2.23396     2.23395
    1 imaginary frequencies ignored.
 Zero-point vibrational energy     103745.5 (Joules/Mol)
                                   24.79576 (Kcal/Mol)
 Warning -- explicit consideration of   3 degrees of freedom as
           vibrations may cause significant error
 Vibrational temperatures:    268.99   269.04   425.92  1423.72  1424.04
          (Kelvin)           1765.20  2173.01  2173.66  4835.23  5097.95
                             5098.67
 
 Zero-point correction=                           0.039515 (Hartree/Particle)
 Thermal correction to Energy=                    0.044036
 Thermal correction to Enthalpy=                  0.044980
 Thermal correction to Gibbs Free Energy=         0.012490
 Sum of electronic and zero-point Energies=           -598.486600
 Sum of electronic and thermal Energies=              -598.482078
 Sum of electronic and thermal Enthalpies=            -598.481134
 Sum of electronic and thermal Free Energies=         -598.513624
 
                     E (Thermal)             CV                S
                      KCal/Mol        Cal/Mol-Kelvin    Cal/Mol-Kelvin
 Total                   27.633             12.468             68.381
 Electronic               0.000              0.000              0.000
 Translational            0.889              2.981             38.612
 Rotational               0.889              2.981             23.561
 Vibrational             25.856              6.506              6.209
 Vibration     1          0.632              1.858              2.258
 Vibration     2          0.632              1.858              2.257
 Vibration     3          0.690              1.681              1.439
                       Q            Log10(Q)             Ln(Q)
 Total Bot       0.179837D-05         -5.745121        -13.228629
 Total V=0       0.269338D+13         12.430298         28.621818
 Vib (Bot)       0.253863D-17        -17.595401        -40.514908
 Vib (Bot)    1  0.107169D+01          0.030067          0.069232
 Vib (Bot)    2  0.107149D+01          0.029989          0.069052
 Vib (Bot)    3  0.643858D+00         -0.191210         -0.440277
 Vib (V=0)       0.380204D+01          0.580017          1.335539
 Vib (V=0)    1  0.168259D+01          0.225977          0.520332
 Vib (V=0)    2  0.168241D+01          0.225932          0.520228
 Vib (V=0)    3  0.131520D+01          0.118992          0.273990
 Electronic      0.100000D+01          0.000000          0.000000
 Translational   0.225237D+08          7.352640         16.930079
 Rotational      0.314514D+05          4.497641         10.356200
 -------------------------------------------------------------------
 Center     Atomic                   Forces (Hartrees/Bohr)
 Number     Number              X              Y              Z
 -------------------------------------------------------------------
      1        6           0.000005437    0.000093039    0.000010848
      2        1          -0.000006338   -0.000015290   -0.000009393
      3        1           0.000033144   -0.000041079    0.000027988
      4        1          -0.000038345   -0.000045381    0.000027432
      5        9           0.000003402    0.000000530   -0.000009792
      6       17           0.000002700    0.000008182   -0.000047083
 -------------------------------------------------------------------
 Cartesian Forces:  Max     0.000093039 RMS     0.000032843

 GradGradGradGradGradGradGradGradGradGradGradGradGradGradGradGradGradGrad
 Berny optimization.
 Search for a saddle point.
 Step number   1 out of a maximum of    2
 All quantities printed in internal units (Hartrees-Bohrs-Radians)
 Swapping is turned off.
 Second derivative matrix not updated -- analytic derivatives used.
 The second derivative matrix:
                          X1        Y1        Z1        X2        Y2
           X1           0.74181
           Y1           0.00004   0.74126
           Z1          -0.00019   0.00014   0.03788
           X2          -0.05942  -0.00003   0.00001   0.05087
           Y2          -0.00003  -0.40548  -0.07518   0.00003   0.41140
           Z2           0.00000  -0.07477  -0.02945   0.00001   0.07619
           X3          -0.31915  -0.14988   0.06511   0.00482   0.00358
           Y3          -0.14987  -0.14589   0.03756  -0.02657  -0.00845
           Z3           0.06475   0.03737  -0.02940  -0.00607  -0.00352
           X4          -0.31921   0.14988  -0.06493   0.00482  -0.00358
           Y4           0.14986  -0.14587   0.03747   0.02658  -0.00846
           Z4          -0.06458   0.03728  -0.02934   0.00607  -0.00352
           X5          -0.01030  -0.00000  -0.00000  -0.00123   0.00000
           Y5          -0.00000  -0.01030   0.00001   0.00000   0.00325
           Z5           0.00001  -0.00000   0.03000  -0.00000  -0.00073
           X6          -0.03375  -0.00000   0.00002   0.00015   0.00000
           Y6          -0.00000  -0.03374  -0.00000  -0.00001   0.00773
           Z6           0.00001  -0.00001   0.02032  -0.00001   0.00676
                          Z2        X3        Y3        Z3        X4
           Z2           0.05938
           X3           0.00002   0.32141
           Y3           0.00701   0.15615   0.14095
           Z3           0.00440  -0.06599  -0.03808   0.05937
           X4          -0.00002  -0.01505   0.01507  -0.00607   0.32147
           Y4           0.00700  -0.01507   0.01146  -0.00350  -0.15615
           Z4           0.00440   0.00608  -0.00350   0.00439   0.06583
           X5          -0.00000   0.00213   0.00194  -0.00116   0.00214
           Y5           0.00134   0.00194  -0.00011  -0.00067  -0.00194
           Z5          -0.01221   0.00064   0.00037  -0.01222  -0.00064
           X6          -0.00001   0.00584   0.00328   0.01453   0.00583
           Y6          -0.01678   0.00328   0.00204   0.00840  -0.00328
           Z6          -0.02652  -0.00586  -0.00337  -0.02655   0.00583
                          Y4        Z4        X5        Y5        Z5
           Y4           0.14094
           Z4          -0.03798   0.05930
           X5          -0.00194   0.00116   0.00376
           Y5          -0.00011  -0.00067   0.00000   0.00376
           Z5           0.00037  -0.01221   0.00001  -0.00001   0.03454
           X6          -0.00328  -0.01455   0.00349   0.00000  -0.00001
           Y6           0.00204   0.00840   0.00000   0.00349   0.00000
           Z6          -0.00337  -0.02654  -0.00000   0.00000  -0.02791
                          X6        Y6        Z6
           X6           0.01843
           Y6           0.00000   0.01842
           Z6           0.00002  -0.00001   0.08721
 ITU=  0
     Eigenvalues ---   -0.02732   0.00699   0.00699   0.05300   0.05302
     Eigenvalues ---    0.06728   0.10308   0.11961   0.11965   0.46768
     Eigenvalues ---    1.07773   1.07835
 Eigenvectors required to have negative eigenvalues:
                          Z1        Z5        Z6        Y2        X3
   1                    0.83678  -0.43411  -0.21757   0.13741  -0.11907
                          X4        Y3        Y4        Z2        Z4
   1                    0.11870  -0.06853  -0.06846   0.05017   0.04998
 Angle between quadratic step and forces=  62.11 degrees.
 Linear search not attempted -- option 19 set.
 B after Tr=     0.000110    0.000106   -0.000041
         Rot=    1.000000   -0.000010   -0.000003    0.000000 Ang=  -0.00 deg.
 Variable       Old X    -DE/DX   Delta X   Delta X   Delta X     New X
                                 (Linear)    (Quad)   (Total)
    X1        0.00004   0.00001   0.00000  -0.00021  -0.00010  -0.00006
    Y1       -0.00018   0.00009   0.00000   0.00012   0.00021   0.00004
    Z1        0.57147   0.00001   0.00000  -0.00066  -0.00070   0.57077
    X2        0.00024  -0.00001   0.00000  -0.00033  -0.00021   0.00003
    Y2        1.97764  -0.00002   0.00000  -0.00003   0.00006   1.97769
    Z2        1.01046  -0.00001   0.00000  -0.00017  -0.00018   1.01028
    X3       -1.71305   0.00003   0.00000   0.00022   0.00034  -1.71272
    Y3       -0.98861  -0.00004   0.00000  -0.00035  -0.00027  -0.98887
    Z3        1.01015   0.00003   0.00000   0.00018   0.00013   1.01028
    X4        1.71345  -0.00004   0.00000  -0.00079  -0.00067   1.71278
    Y4       -0.98855  -0.00005   0.00000  -0.00040  -0.00032  -0.98887
    Z4        1.00914   0.00003   0.00000   0.00052   0.00045   1.00959
[...]
 Number     Number              X              Y              Z
 -------------------------------------------------------------------
      1        6           0.000004303   -0.000004876    0.057030662
      2        1          -0.000000749   -0.000819953   -0.000194975
      3        1           0.000709554    0.000410418   -0.000195257
      4        1          -0.000710377    0.000410025   -0.000193919
      5        9           0.000000309    0.000002168   -0.031260405
      6       17          -0.000003039    0.000002219   -0.025186107
 -------------------------------------------------------------------
 Cartesian Forces:  Max     0.057030662 RMS     0.016442121
 IRC-IRC-IRC-IRC-IRC-IRC-IRC-IRC-IRC-IRC-IRC-IRC-IRC-IRC-IRC-IRC-IRC-IRC
 Pt  8 Step number   1 out of a maximum of  20
 Point Number:   6          Path Number:   2
   CHANGE IN THE REACTION COORDINATE =    0.34684
   NET REACTION COORDINATE UP TO THIS POINT =    2.08015
  # OF POINTS ALONG THE PATH =   8
  # OF STEPS =   1

 Calculating another point on the path.
 IRC-IRC-IRC-IRC-IRC-IRC-IRC-IRC-IRC-IRC-IRC-IRC-IRC-IRC-IRC-IRC-IRC-IRC
                          Input orientation:                          
 ---------------------------------------------------------------------
 Center     Atomic      Atomic             Coordinates (Angstroms)
 Number     Number       Type             X           Y           Z
 ---------------------------------------------------------------------
      1          6           0        0.000222   -0.000079    0.720023
      2          1           0        0.000207    1.065676    0.615236
      3          1           0       -0.922756   -0.532945    0.615245
      4          1           0        0.923170   -0.532941    0.614923
      5          9           0        0.000448   -0.000236    2.512818
      6         17           0       -0.000338    0.000162   -1.665472
 ---------------------------------------------------------------------
                    Distance matrix (angstroms):
                    1          2          3          4          5
     1  C    0.000000
     2  H    1.070895   0.000000
     3  H    1.070893   1.845928   0.000000
     4  H    1.070898   1.845925   1.845926   0.000000
     5  F    1.792795   2.176462   2.176435   2.176509   0.000000
     6  Cl   2.385495   2.517330   2.517286   2.517393   4.178290
                    6
     6  Cl   0.000000
 Symmetry turned off by external request.
 Stoichiometry    CH3ClF(1-)
 Framework group  C1[X(CH3ClF)]
 Deg. of freedom    12
 Full point group                 C1      NOp   1
 Rotational constants (GHZ):         147.1646126           2.2357992           2.2357991
 Standard basis: STO-3G (5D, 7F)
    22 basis functions,    66 primitive gaussians,    22 cartesian basis functions
    18 alpha electrons       18 beta electrons
       nuclear repulsion energy        84.9833938777 Hartrees.
 NAtoms=    6 NActive=    6 NUniq=    6 SFac= 1.00D+00 NAtFMM=   60 NAOKFM=F Big=F
 Integral buffers will be    131072 words long.
 Raffenetti 1 integral format.
 Two-electron integral symmetry is turned off.
 External calculation of energy, first and second derivatives.
 Running external command "bash ${CHINIUM_PATH}/tools/gau_cnm.sh template sn2.mwfn R"
         input file       "/tmp/yzhangnn/1474473/Gau-4004.EIn"
         output file      "/tmp/yzhangnn/1474473/Gau-4004.EOu"
         message file     "/tmp/yzhangnn/1474473/Gau-4004.EMs"
         fchk file        "/tmp/yzhangnn/1474473/Gau-4004.EFC"
         mat. el file     "/tmp/yzhangnn/1474473/Gau-4004.EUF"
 Recovered energy= -598.549149243     dipole=      0.000000000000      0.000000000000      0.000000000000
 Energy=    -598.549149     NIter=   0.
 Dipole moment=       0.000000       0.000000       0.000000
 -------------------------------------------------------------------
 Center     Atomic                   Forces (Hartrees/Bohr)
 Number     Number              X              Y              Z
 -------------------------------------------------------------------
      1        6           0.000005566   -0.000005588    0.066584219
      2        1          -0.000000476   -0.000981605    0.000002915
      3        1           0.000849928    0.000491075    0.000002539
      4        1          -0.000850401    0.000490794    0.000004221
      5        9          -0.000000606    0.000002750   -0.038086087
      6       17          -0.000004012    0.000002575   -0.028507807
 -------------------------------------------------------------------
 Cartesian Forces:  Max     0.066584219 RMS     0.019292478
 IRC-IRC-IRC-IRC-IRC-IRC-IRC-IRC-IRC-IRC-IRC-IRC-IRC-IRC-IRC-IRC-IRC-IRC
 Pt  9 Step number   1 out of a maximum of  20
 Point Number:   7          Path Number:   2
   CHANGE IN THE REACTION COORDINATE =    0.34686
   NET REACTION COORDINATE UP TO THIS POINT =    2.42701
  # OF POINTS ALONG THE PATH =   9
  # OF STEPS =   1

 Calculating another point on the path.
 IRC-IRC-IRC-IRC-IRC-IRC-IRC-IRC-IRC-IRC-IRC-IRC-IRC-IRC-IRC-IRC-IRC-IRC
                          Input orientation:                          
 ---------------------------------------------------------------------
 Center     Atomic      Atomic             Coordinates (Angstroms)
 Number     Number       Type             X           Y           Z
 ---------------------------------------------------------------------
      1          6           0        0.000226   -0.000083    0.766939
      2          1           0        0.000203    1.061398    0.615478
      3          1           0       -0.919054   -0.530804    0.615479
      4          1           0        0.919462   -0.530801    0.615172
      5          9           0        0.000448   -0.000235    2.495625
      6         17           0       -0.000339    0.000162   -1.672252
 ---------------------------------------------------------------------
                    Distance matrix (angstroms):
                    1          2          3          4          5
     1  C    0.000000
     2  H    1.072233   0.000000
     3  H    1.072232   1.838516   0.000000
     4  H    1.072236   1.838515   1.838517   0.000000
     5  F    1.728686   2.159171   2.159152   2.159211   0.000000
     6  Cl   2.439191   2.521891   2.521841   2.521957   4.167877
                    6
     6  Cl   0.000000
 Symmetry turned off by external request.
 Stoichiometry    CH3ClF(1-)
 Framework group  C1[X(CH3ClF)]
 Deg. of freedom    12
 Full point group                 C1      NOp   1
 Rotational constants (GHZ):         148.3532939           2.2359996           2.2359996
 Standard basis: STO-3G (5D, 7F)
    22 basis functions,    66 primitive gaussians,    22 cartesian basis functions
    18 alpha electrons       18 beta electrons
       nuclear repulsion energy        85.1503521105 Hartrees.
 NAtoms=    6 NActive=    6 NUniq=    6 SFac= 1.00D+00 NAtFMM=   60 NAOKFM=F Big=F
 Integral buffers will be    131072 words long.
 Raffenetti 1 integral format.
 Two-electron integral symmetry is turned off.
 External calculation of energy, first and second derivatives.
 Running external command "bash ${CHINIUM_PATH}/tools/gau_cnm.sh template sn2.mwfn R"
         input file       "/tmp/yzhangnn/1474473/Gau-4004.EIn"
         output file      "/tmp/yzhangnn/1474473/Gau-4004.EOu"
         message file     "/tmp/yzhangnn/1474473/Gau-4004.EMs"
         fchk file        "/tmp/yzhangnn/1474473/Gau-4004.EFC"
         mat. el file     "/tmp/yzhangnn/1474473/Gau-4004.EUF"
 Recovered energy= -598.557105791     dipole=      0.000000000000      0.000000000000      0.000000000000
 Energy=    -598.557106     NIter=   0.
 Dipole moment=       0.000000       0.000000       0.000000
 -------------------------------------------------------------------
 Center     Atomic                   Forces (Hartrees/Bohr)
 Number     Number              X              Y              Z
 -------------------------------------------------------------------
      1        6           0.000006715   -0.000006153    0.073146883
      2        1          -0.000000301   -0.001136798    0.000321413
      3        1           0.000984671    0.000568602    0.000321319
      4        1          -0.000984901    0.000568384    0.000323054
      5        9          -0.000001490    0.000003119   -0.043429328
      6       17          -0.000004694    0.000002846   -0.030683340
 -------------------------------------------------------------------
 Cartesian Forces:  Max     0.073146883 RMS     0.021320608
 IRC-IRC-IRC-IRC-IRC-IRC-IRC-IRC-IRC-IRC-IRC-IRC-IRC-IRC-IRC-IRC-IRC-IRC
 Pt 10 Step number   1 out of a maximum of  20
 Point Number:   8          Path Number:   2
   CHANGE IN THE REACTION COORDINATE =    0.34687
   NET REACTION COORDINATE UP TO THIS POINT =    2.77388
  # OF POINTS ALONG THE PATH =  10
  # OF STEPS =   1

 Calculating another point on the path.
 IRC-IRC-IRC-IRC-IRC-IRC-IRC-IRC-IRC-IRC-IRC-IRC-IRC-IRC-IRC-IRC-IRC-IRC
                          Input orientation:                          
 ---------------------------------------------------------------------
 Center     Atomic      Atomic             Coordinates (Angstroms)
 Number     Number       Type             X           Y           Z
 ---------------------------------------------------------------------
      1          6           0        0.000231   -0.000087    0.813577
      2          1           0        0.000199    1.055862    0.618259
      3          1           0       -0.914262   -0.528031    0.618247
      4          1           0        0.914667   -0.528031    0.617954
      5          9           0        0.000447   -0.000234    2.477950
      6         17           0       -0.000340    0.000163   -1.678894
 ---------------------------------------------------------------------
                    Distance matrix (angstroms):
                    1          2          3          4          5
     1  C    0.000000
     2  H    1.073861   0.000000
     3  H    1.073860   1.828923   0.000000
     4  H    1.073865   1.828925   1.828929   0.000000
     5  F    1.664374   2.138643   2.138635   2.138680   0.000000
     6  Cl   2.492471   2.528124   2.528063   2.528189   4.156845
                    6
     6  Cl   0.000000
 Symmetry turned off by external request.
 Stoichiometry    CH3ClF(1-)
 Framework group  C1[X(CH3ClF)]
 Deg. of freedom    12
 Full point group                 C1      NOp   1
 Rotational constants (GHZ):         149.9132330           2.2361439           2.2361438
 Standard basis: STO-3G (5D, 7F)
    22 basis functions,    66 primitive gaussians,    22 cartesian basis functions
    18 alpha electrons       18 beta electrons
       nuclear repulsion energy        85.3958170880 Hartrees.
 NAtoms=    6 NActive=    6 NUniq=    6 SFac= 1.00D+00 NAtFMM=   60 NAOKFM=F Big=F
 Integral buffers will be    131072 words long.
 Raffenetti 1 integral format.
 Two-electron integral symmetry is turned off.
 External calculation of energy, first and second derivatives.
 Running external command "bash ${CHINIUM_PATH}/tools/gau_cnm.sh template sn2.mwfn R"
         input file       "/tmp/yzhangnn/1474473/Gau-4004.EIn"
         output file      "/tmp/yzhangnn/1474473/Gau-4004.EOu"
         message file     "/tmp/yzhangnn/1474473/Gau-4004.EMs"
         fchk file        "/tmp/yzhangnn/1474473/Gau-4004.EFC"
         mat. el file     "/tmp/yzhangnn/1474473/Gau-4004.EUF"
 Recovered energy= -598.565641945     dipole=      0.000000000000      0.000000000000      0.000000000000
 Energy=    -598.565642     NIter=   0.
 Dipole moment=       0.000000       0.000000       0.000000
 -------------------------------------------------------------------
 Center     Atomic                   Forces (Hartrees/Bohr)
 Number     Number              X              Y              Z
 -------------------------------------------------------------------
      1        6           0.000007417   -0.000005865    0.075695665
      2        1           0.000000040   -0.001242335    0.000721368
      3        1           0.001076646    0.000620990    0.000722059
      4        1          -0.001076810    0.000621127    0.000723589
      5        9          -0.000002186    0.000003047   -0.046139824
      6       17          -0.000005107    0.000003037   -0.031722857
 -------------------------------------------------------------------
 Cartesian Forces:  Max     0.075695665 RMS     0.022200170
 IRC-IRC-IRC-IRC-IRC-IRC-IRC-IRC-IRC-IRC-IRC-IRC-IRC-IRC-IRC-IRC-IRC-IRC
 Pt 11 Step number   1 out of a maximum of  20
 Point Number:   9          Path Number:   2
   CHANGE IN THE REACTION COORDINATE =    0.34688
   NET REACTION COORDINATE UP TO THIS POINT =    3.12075
  # OF POINTS ALONG THE PATH =  11
  # OF STEPS =   1

 Calculating another point on the path.
 IRC-IRC-IRC-IRC-IRC-IRC-IRC-IRC-IRC-IRC-IRC-IRC-IRC-IRC-IRC-IRC-IRC-IRC
                          Input orientation:                          
 ---------------------------------------------------------------------
 Center     Atomic      Atomic             Coordinates (Angstroms)
 Number     Number       Type             X           Y           Z
 ---------------------------------------------------------------------
      1          6           0        0.000240   -0.000094    0.859959
      2          1           0        0.000099    1.049390    0.623903
      3          1           0       -0.908797   -0.524572    0.623972
      4          1           0        0.909186   -0.524679    0.623694
      5          9           0        0.000448   -0.000242    2.460037
      6         17           0       -0.000340    0.000160   -1.685571
 ---------------------------------------------------------------------
                    Distance matrix (angstroms):
                    1          2          3          4          5
     1  C    0.000000
     2  H    1.075704   0.000000
     3  H    1.075693   1.817539   0.000000
     4  H    1.075729   1.817727   1.817983   0.000000
     5  F    1.600078   2.114974   2.114896   2.114945   0.000000
     6  Cl   2.545531   2.536643   2.536657   2.536809   4.145609
                    6
     6  Cl   0.000000
 Symmetry turned off by external request.
 Stoichiometry    CH3ClF(1-)
 Framework group  C1[X(CH3ClF)]
 Deg. of freedom    12
 Full point group                 C1      NOp   1
 Rotational constants (GHZ):         151.7622825           2.2357782           2.2357689
 Standard basis: STO-3G (5D, 7F)
    22 basis functions,    66 primitive gaussians,    22 cartesian basis functions
    18 alpha electrons       18 beta electrons
       nuclear repulsion energy        85.7160315252 Hartrees.
 NAtoms=    6 NActive=    6 NUniq=    6 SFac= 1.00D+00 NAtFMM=   60 NAOKFM=F Big=F
 Integral buffers will be    131072 words long.
 Raffenetti 1 integral format.
 Two-electron integral symmetry is turned off.
 External calculation of energy, first and second derivatives.
 Running external command "bash ${CHINIUM_PATH}/tools/gau_cnm.sh template sn2.mwfn R"
         input file       "/tmp/yzhangnn/1474473/Gau-4004.EIn"
         output file      "/tmp/yzhangnn/1474473/Gau-4004.EOu"
         message file     "/tmp/yzhangnn/1474473/Gau-4004.EMs"
         fchk file        "/tmp/yzhangnn/1474473/Gau-4004.EFC"
         mat. el file     "/tmp/yzhangnn/1474473/Gau-4004.EUF"
 Recovered energy= -598.574237344     dipole=      0.000000000000      0.000000000000      0.000000000000
 Energy=    -598.574237     NIter=   0.
 Dipole moment=       0.000000       0.000000       0.000000
 -------------------------------------------------------------------
 Center     Atomic                   Forces (Hartrees/Bohr)
 Number     Number              X              Y              Z
 -------------------------------------------------------------------
      1        6           0.000009931    0.000030229    0.073125587
      2        1           0.000016104   -0.001258212    0.001146433
      3        1           0.001113402    0.000594624    0.001131703
      4        1          -0.001131588    0.000623707    0.001134382
      5        9          -0.000002302    0.000006845   -0.044811288
      6       17          -0.000005547    0.000002808   -0.031726816
 -------------------------------------------------------------------
 Cartesian Forces:  Max     0.073125587 RMS     0.021564790
 IRC-IRC-IRC-IRC-IRC-IRC-IRC-IRC-IRC-IRC-IRC-IRC-IRC-IRC-IRC-IRC-IRC-IRC
 Reaction path inflection point has been passed.
   Previous lowest Hessian eigenvalue=   -0.0006161012
   Current lowest Hessian eigenvalue =    0.0031002947
 Pt 12 Step number   1 out of a maximum of  20
 Point Number:  10          Path Number:   2
   CHANGE IN THE REACTION COORDINATE =    0.34689
   NET REACTION COORDINATE UP TO THIS POINT =    3.46764
  # OF POINTS ALONG THE PATH =  12
  # OF STEPS =   1

 Maximum number of steps reached.
 Calculation of REVERSE path complete.
 Reaction path calculation complete.
 
 Energies reported relative to the TS energy of        -598.526115
 --------------------------------------------------------------------------
    Summary of reaction path following
 --------------------------------------------------------------------------
                        Energy    RxCoord
   1                   -0.04812  -3.46764
   2                   -0.03953  -3.12075
   3                   -0.03099  -2.77388
   4                   -0.02303  -2.42701
   5                   -0.01604  -2.08015
   6                   -0.01028  -1.73331
   7                   -0.00588  -1.38651
   8                   -0.00284  -1.03977
   9                   -0.00102  -0.69315
  10                   -0.00019  -0.34697
  11                    0.00000   0.00000
  12                   -0.00005   0.34697
  13                   -0.00007   0.52288
 --------------------------------------------------------------------------
 
 Total number of points:                   12
 Total number of gradient calculations:    12
 Total number of Hessian calculations:     12
 IRC-IRC-IRC-IRC-IRC-IRC-IRC-IRC-IRC-IRC-IRC-IRC-IRC-IRC-IRC-IRC-IRC-IRC
                          Input orientation:                          
 ---------------------------------------------------------------------
 Center     Atomic      Atomic             Coordinates (Angstroms)
 Number     Number       Type             X           Y           Z
 ---------------------------------------------------------------------
      1          6           0        0.000240   -0.000094    0.859959
      2          1           0        0.000099    1.049390    0.623903
      3          1           0       -0.908797   -0.524572    0.623972
      4          1           0        0.909186   -0.524679    0.623694
      5          9           0        0.000448   -0.000242    2.460037
      6         17           0       -0.000340    0.000160   -1.685571
 ---------------------------------------------------------------------
                    Distance matrix (angstroms):
                    1          2          3          4          5
     1  C    0.000000
     2  H    1.075704   0.000000
     3  H    1.075693   1.817539   0.000000
     4  H    1.075729   1.817727   1.817983   0.000000
     5  F    1.600078   2.114974   2.114896   2.114945   0.000000
     6  Cl   2.545531   2.536643   2.536657   2.536809   4.145609
                    6
     6  Cl   0.000000
 Symmetry turned off by external request.
 Stoichiometry    CH3ClF(1-)
 Framework group  C1[X(CH3ClF)]
 Deg. of freedom    12
 Full point group                 C1      NOp   1
 Rotational constants (GHZ):         151.7622825           2.2357782           2.2357689

 This type of calculation cannot be archived.


 FAULTILY FAULTLESS, ICILY REGULAR, SPLENDIDLY NULL...
           MAUDE BY TENNYSON
 Job cpu time:       0 days  0 hours  0 minutes  9.8 seconds.
 Elapsed time:       0 days  0 hours  1 minutes 59.8 seconds.
 File lengths (MBytes):  RWF=      6 Int=      0 D2E=      0 Chk=      3 Scr=      1
 Normal termination of Gaussian 16 at Tue Mar 25 15:51:02 2025.
